   2   2   0   0
  0.1965315E+04  0.1230000E-08  0.1230000E-08  0.3000000E-08  0.2000000E-15
  1.000000000000000E-004
  CAR 
 ***                                     
      1.90921319    -30.37857161  301    -10.11798665      1.00000000
    -30.379  0.0000E+00  0.0000E+00  0.0000E+00  0.0000E+00
    -30.271  0.0000E+00  0.0000E+00  0.0000E+00  0.0000E+00
    -30.163  0.0000E+00  0.0000E+00  0.0000E+00  0.0000E+00
    -30.056  0.0000E+00  0.0000E+00  0.0000E+00  0.0000E+00
    -29.948  0.0000E+00  0.0000E+00  0.0000E+00  0.0000E+00
    -29.840  0.0000E+00  0.0000E+00  0.0000E+00  0.0000E+00
    -29.733  0.0000E+00  0.0000E+00  0.0000E+00  0.0000E+00
    -29.625  0.0000E+00  0.0000E+00  0.0000E+00  0.0000E+00
    -29.518  0.0000E+00  0.0000E+00  0.0000E+00  0.0000E+00
    -29.410  0.0000E+00  0.0000E+00  0.0000E+00  0.0000E+00
    -29.302  0.0000E+00  0.0000E+00  0.0000E+00  0.0000E+00
    -29.195  0.0000E+00  0.0000E+00  0.0000E+00  0.0000E+00
    -29.087  0.0000E+00  0.0000E+00  0.0000E+00  0.0000E+00
    -28.979  0.5941E-05  0.5944E-05  0.6394E-06  0.6397E-06
    -28.872  0.9265E+01  0.9265E+01  0.9972E+00  0.9972E+00
    -28.764  0.2626E-01  0.2625E-01  0.1000E+01  0.1000E+01
    -28.657  0.0000E+00  0.0000E+00  0.1000E+01  0.1000E+01
    -28.549  0.0000E+00  0.0000E+00  0.1000E+01  0.1000E+01
    -28.441  0.0000E+00  0.0000E+00  0.1000E+01  0.1000E+01
    -28.334  0.0000E+00  0.0000E+00  0.1000E+01  0.1000E+01
    -28.226  0.0000E+00  0.0000E+00  0.1000E+01  0.1000E+01
    -28.118  0.0000E+00  0.0000E+00  0.1000E+01  0.1000E+01
    -28.011  0.0000E+00  0.0000E+00  0.1000E+01  0.1000E+01
    -27.903  0.0000E+00  0.0000E+00  0.1000E+01  0.1000E+01
    -27.796  0.0000E+00  0.0000E+00  0.1000E+01  0.1000E+01
    -27.688  0.0000E+00  0.0000E+00  0.1000E+01  0.1000E+01
    -27.580  0.0000E+00  0.0000E+00  0.1000E+01  0.1000E+01
    -27.473  0.0000E+00  0.0000E+00  0.1000E+01  0.1000E+01
    -27.365  0.0000E+00  0.0000E+00  0.1000E+01  0.1000E+01
    -27.257  0.0000E+00  0.0000E+00  0.1000E+01  0.1000E+01
    -27.150  0.0000E+00  0.0000E+00  0.1000E+01  0.1000E+01
    -27.042  0.0000E+00  0.0000E+00  0.1000E+01  0.1000E+01
    -26.935  0.0000E+00  0.0000E+00  0.1000E+01  0.1000E+01
    -26.827  0.0000E+00  0.0000E+00  0.1000E+01  0.1000E+01
    -26.719  0.0000E+00  0.0000E+00  0.1000E+01  0.1000E+01
    -26.612  0.0000E+00  0.0000E+00  0.1000E+01  0.1000E+01
    -26.504  0.0000E+00  0.0000E+00  0.1000E+01  0.1000E+01
    -26.396  0.0000E+00  0.0000E+00  0.1000E+01  0.1000E+01
    -26.289  0.0000E+00  0.0000E+00  0.1000E+01  0.1000E+01
    -26.181  0.0000E+00  0.0000E+00  0.1000E+01  0.1000E+01
    -26.074  0.0000E+00  0.0000E+00  0.1000E+01  0.1000E+01
    -25.966  0.0000E+00  0.0000E+00  0.1000E+01  0.1000E+01
    -25.858  0.0000E+00  0.0000E+00  0.1000E+01  0.1000E+01
    -25.751  0.0000E+00  0.0000E+00  0.1000E+01  0.1000E+01
    -25.643  0.0000E+00  0.0000E+00  0.1000E+01  0.1000E+01
    -25.535  0.0000E+00  0.0000E+00  0.1000E+01  0.1000E+01
    -25.428  0.0000E+00  0.0000E+00  0.1000E+01  0.1000E+01
    -25.320  0.0000E+00  0.0000E+00  0.1000E+01  0.1000E+01
    -25.213  0.0000E+00  0.0000E+00  0.1000E+01  0.1000E+01
    -25.105  0.0000E+00  0.0000E+00  0.1000E+01  0.1000E+01
    -24.997  0.0000E+00  0.0000E+00  0.1000E+01  0.1000E+01
    -24.890  0.0000E+00  0.0000E+00  0.1000E+01  0.1000E+01
    -24.782  0.0000E+00  0.0000E+00  0.1000E+01  0.1000E+01
    -24.674  0.0000E+00  0.0000E+00  0.1000E+01  0.1000E+01
    -24.567  0.0000E+00  0.0000E+00  0.1000E+01  0.1000E+01
    -24.459  0.0000E+00  0.0000E+00  0.1000E+01  0.1000E+01
    -24.352  0.0000E+00  0.0000E+00  0.1000E+01  0.1000E+01
    -24.244  0.0000E+00  0.0000E+00  0.1000E+01  0.1000E+01
    -24.136  0.0000E+00  0.0000E+00  0.1000E+01  0.1000E+01
    -24.029  0.0000E+00  0.0000E+00  0.1000E+01  0.1000E+01
    -23.921  0.0000E+00  0.0000E+00  0.1000E+01  0.1000E+01
    -23.813  0.0000E+00  0.0000E+00  0.1000E+01  0.1000E+01
    -23.706  0.0000E+00  0.0000E+00  0.1000E+01  0.1000E+01
    -23.598  0.0000E+00  0.0000E+00  0.1000E+01  0.1000E+01
    -23.491  0.0000E+00  0.0000E+00  0.1000E+01  0.1000E+01
    -23.383  0.0000E+00  0.0000E+00  0.1000E+01  0.1000E+01
    -23.275  0.0000E+00  0.0000E+00  0.1000E+01  0.1000E+01
    -23.168  0.0000E+00  0.0000E+00  0.1000E+01  0.1000E+01
    -23.060  0.0000E+00  0.0000E+00  0.1000E+01  0.1000E+01
    -22.952  0.0000E+00  0.0000E+00  0.1000E+01  0.1000E+01
    -22.845  0.0000E+00  0.0000E+00  0.1000E+01  0.1000E+01
    -22.737  0.0000E+00  0.0000E+00  0.1000E+01  0.1000E+01
    -22.630  0.0000E+00  0.0000E+00  0.1000E+01  0.1000E+01
    -22.522  0.0000E+00  0.0000E+00  0.1000E+01  0.1000E+01
    -22.414  0.0000E+00  0.0000E+00  0.1000E+01  0.1000E+01
    -22.307  0.0000E+00  0.0000E+00  0.1000E+01  0.1000E+01
    -22.199  0.0000E+00  0.0000E+00  0.1000E+01  0.1000E+01
    -22.091  0.0000E+00  0.0000E+00  0.1000E+01  0.1000E+01
    -21.984  0.0000E+00  0.0000E+00  0.1000E+01  0.1000E+01
    -21.876  0.0000E+00  0.0000E+00  0.1000E+01  0.1000E+01
    -21.768  0.0000E+00  0.0000E+00  0.1000E+01  0.1000E+01
    -21.661  0.0000E+00  0.0000E+00  0.1000E+01  0.1000E+01
    -21.553  0.0000E+00  0.0000E+00  0.1000E+01  0.1000E+01
    -21.446  0.0000E+00  0.0000E+00  0.1000E+01  0.1000E+01
    -21.338  0.0000E+00  0.0000E+00  0.1000E+01  0.1000E+01
    -21.230  0.0000E+00  0.0000E+00  0.1000E+01  0.1000E+01
    -21.123  0.0000E+00  0.0000E+00  0.1000E+01  0.1000E+01
    -21.015  0.0000E+00  0.0000E+00  0.1000E+01  0.1000E+01
    -20.907  0.0000E+00  0.0000E+00  0.1000E+01  0.1000E+01
    -20.800  0.0000E+00  0.0000E+00  0.1000E+01  0.1000E+01
    -20.692  0.0000E+00  0.0000E+00  0.1000E+01  0.1000E+01
    -20.585  0.0000E+00  0.0000E+00  0.1000E+01  0.1000E+01
    -20.477  0.0000E+00  0.0000E+00  0.1000E+01  0.1000E+01
    -20.369  0.0000E+00  0.0000E+00  0.1000E+01  0.1000E+01
    -20.262  0.0000E+00  0.0000E+00  0.1000E+01  0.1000E+01
    -20.154  0.0000E+00  0.0000E+00  0.1000E+01  0.1000E+01
    -20.046  0.0000E+00  0.0000E+00  0.1000E+01  0.1000E+01
    -19.939  0.0000E+00  0.0000E+00  0.1000E+01  0.1000E+01
    -19.831  0.0000E+00  0.0000E+00  0.1000E+01  0.1000E+01
    -19.724  0.0000E+00  0.0000E+00  0.1000E+01  0.1000E+01
    -19.616  0.0000E+00  0.0000E+00  0.1000E+01  0.1000E+01
    -19.508  0.0000E+00  0.0000E+00  0.1000E+01  0.1000E+01
    -19.401  0.0000E+00  0.0000E+00  0.1000E+01  0.1000E+01
    -19.293  0.0000E+00  0.0000E+00  0.1000E+01  0.1000E+01
    -19.185  0.0000E+00  0.0000E+00  0.1000E+01  0.1000E+01
    -19.078  0.0000E+00  0.0000E+00  0.1000E+01  0.1000E+01
    -18.970  0.0000E+00  0.0000E+00  0.1000E+01  0.1000E+01
    -18.863  0.0000E+00  0.0000E+00  0.1000E+01  0.1000E+01
    -18.755  0.0000E+00  0.0000E+00  0.1000E+01  0.1000E+01
    -18.647  0.0000E+00  0.0000E+00  0.1000E+01  0.1000E+01
    -18.540  0.0000E+00  0.0000E+00  0.1000E+01  0.1000E+01
    -18.432  0.0000E+00  0.0000E+00  0.1000E+01  0.1000E+01
    -18.324  0.0000E+00  0.0000E+00  0.1000E+01  0.1000E+01
    -18.217  0.0000E+00  0.0000E+00  0.1000E+01  0.1000E+01
    -18.109  0.0000E+00  0.0000E+00  0.1000E+01  0.1000E+01
    -18.002  0.0000E+00  0.0000E+00  0.1000E+01  0.1000E+01
    -17.894  0.0000E+00  0.0000E+00  0.1000E+01  0.1000E+01
    -17.786  0.0000E+00  0.0000E+00  0.1000E+01  0.1000E+01
    -17.679  0.0000E+00  0.0000E+00  0.1000E+01  0.1000E+01
    -17.571  0.0000E+00  0.0000E+00  0.1000E+01  0.1000E+01
    -17.463  0.0000E+00  0.0000E+00  0.1000E+01  0.1000E+01
    -17.356  0.0000E+00  0.0000E+00  0.1000E+01  0.1000E+01
    -17.248  0.0000E+00  0.0000E+00  0.1000E+01  0.1000E+01
    -17.141  0.0000E+00  0.0000E+00  0.1000E+01  0.1000E+01
    -17.033  0.0000E+00  0.0000E+00  0.1000E+01  0.1000E+01
    -16.925  0.0000E+00  0.0000E+00  0.1000E+01  0.1000E+01
    -16.818  0.0000E+00  0.0000E+00  0.1000E+01  0.1000E+01
    -16.710  0.0000E+00  0.0000E+00  0.1000E+01  0.1000E+01
    -16.602  0.0000E+00  0.0000E+00  0.1000E+01  0.1000E+01
    -16.495  0.0000E+00  0.0000E+00  0.1000E+01  0.1000E+01
    -16.387  0.0000E+00  0.0000E+00  0.1000E+01  0.1000E+01
    -16.280  0.0000E+00  0.0000E+00  0.1000E+01  0.1000E+01
    -16.172  0.0000E+00  0.0000E+00  0.1000E+01  0.1000E+01
    -16.064  0.0000E+00  0.0000E+00  0.1000E+01  0.1000E+01
    -15.957  0.0000E+00  0.0000E+00  0.1000E+01  0.1000E+01
    -15.849  0.0000E+00  0.0000E+00  0.1000E+01  0.1000E+01
    -15.741  0.0000E+00  0.0000E+00  0.1000E+01  0.1000E+01
    -15.634  0.0000E+00  0.0000E+00  0.1000E+01  0.1000E+01
    -15.526  0.0000E+00  0.0000E+00  0.1000E+01  0.1000E+01
    -15.419  0.0000E+00  0.0000E+00  0.1000E+01  0.1000E+01
    -15.311  0.0000E+00  0.0000E+00  0.1000E+01  0.1000E+01
    -15.203  0.0000E+00  0.0000E+00  0.1000E+01  0.1000E+01
    -15.096  0.0000E+00  0.0000E+00  0.1000E+01  0.1000E+01
    -14.988  0.0000E+00  0.0000E+00  0.1000E+01  0.1000E+01
    -14.880  0.0000E+00  0.0000E+00  0.1000E+01  0.1000E+01
    -14.773  0.0000E+00  0.0000E+00  0.1000E+01  0.1000E+01
    -14.665  0.0000E+00  0.0000E+00  0.1000E+01  0.1000E+01
    -14.558  0.0000E+00  0.0000E+00  0.1000E+01  0.1000E+01
    -14.450  0.0000E+00  0.0000E+00  0.1000E+01  0.1000E+01
    -14.342  0.0000E+00  0.0000E+00  0.1000E+01  0.1000E+01
    -14.235  0.0000E+00  0.0000E+00  0.1000E+01  0.1000E+01
    -14.127  0.0000E+00  0.0000E+00  0.1000E+01  0.1000E+01
    -14.019  0.0000E+00  0.0000E+00  0.1000E+01  0.1000E+01
    -13.912  0.0000E+00  0.0000E+00  0.1000E+01  0.1000E+01
    -13.804  0.0000E+00  0.0000E+00  0.1000E+01  0.1000E+01
    -13.697  0.0000E+00  0.0000E+00  0.1000E+01  0.1000E+01
    -13.589  0.0000E+00  0.0000E+00  0.1000E+01  0.1000E+01
    -13.481  0.0000E+00  0.0000E+00  0.1000E+01  0.1000E+01
    -13.374  0.0000E+00  0.0000E+00  0.1000E+01  0.1000E+01
    -13.266  0.5080E-04  0.5082E-04  0.1000E+01  0.1000E+01
    -13.158  0.9285E+01  0.9285E+01  0.1999E+01  0.1999E+01
    -13.051  0.6114E-02  0.6112E-02  0.2000E+01  0.2000E+01
    -12.943  0.0000E+00  0.0000E+00  0.2000E+01  0.2000E+01
    -12.836  0.0000E+00  0.0000E+00  0.2000E+01  0.2000E+01
    -12.728  0.0000E+00  0.0000E+00  0.2000E+01  0.2000E+01
    -12.620  0.0000E+00  0.0000E+00  0.2000E+01  0.2000E+01
    -12.513  0.0000E+00  0.0000E+00  0.2000E+01  0.2000E+01
    -12.405  0.0000E+00  0.0000E+00  0.2000E+01  0.2000E+01
    -12.297  0.0000E+00  0.0000E+00  0.2000E+01  0.2000E+01
    -12.190  0.0000E+00  0.0000E+00  0.2000E+01  0.2000E+01
    -12.082  0.0000E+00  0.0000E+00  0.2000E+01  0.2000E+01
    -11.975  0.3225E-01  0.3224E-01  0.2003E+01  0.2003E+01
    -11.867  0.1855E+02  0.1855E+02  0.4000E+01  0.4000E+01
    -11.759  0.0000E+00  0.0000E+00  0.4000E+01  0.4000E+01
    -11.652  0.0000E+00  0.0000E+00  0.4000E+01  0.4000E+01
    -11.544  0.0000E+00  0.0000E+00  0.4000E+01  0.4000E+01
    -11.436  0.0000E+00  0.0000E+00  0.4000E+01  0.4000E+01
    -11.329  0.0000E+00  0.0000E+00  0.4000E+01  0.4000E+01
    -11.221  0.0000E+00  0.0000E+00  0.4000E+01  0.4000E+01
    -11.114  0.0000E+00  0.0000E+00  0.4000E+01  0.4000E+01
    -11.006  0.0000E+00  0.0000E+00  0.4000E+01  0.4000E+01
    -10.898  0.0000E+00  0.0000E+00  0.4000E+01  0.4000E+01
    -10.791  0.0000E+00  0.0000E+00  0.4000E+01  0.4000E+01
    -10.683  0.0000E+00  0.0000E+00  0.4000E+01  0.4000E+01
    -10.575  0.0000E+00  0.0000E+00  0.4000E+01  0.4000E+01
    -10.468  0.0000E+00  0.0000E+00  0.4000E+01  0.4000E+01
    -10.360  0.5158E-14  0.5158E-14  0.4000E+01  0.4000E+01
    -10.253  0.3184E+01  0.3184E+01  0.4343E+01  0.4343E+01
    -10.145  0.6108E+01  0.6108E+01  0.5000E+01  0.5000E+01
    -10.037  0.0000E+00  0.0000E+00  0.5000E+01  0.5000E+01
     -9.930  0.0000E+00  0.0000E+00  0.5000E+01  0.5000E+01
     -9.822  0.0000E+00  0.0000E+00  0.5000E+01  0.5000E+01
     -9.714  0.0000E+00  0.0000E+00  0.5000E+01  0.5000E+01
     -9.607  0.0000E+00  0.0000E+00  0.5000E+01  0.5000E+01
     -9.499  0.0000E+00  0.0000E+00  0.5000E+01  0.5000E+01
     -9.392  0.0000E+00  0.0000E+00  0.5000E+01  0.5000E+01
     -9.284  0.0000E+00  0.0000E+00  0.5000E+01  0.5000E+01
     -9.176  0.0000E+00  0.0000E+00  0.5000E+01  0.5000E+01
     -9.069  0.0000E+00  0.0000E+00  0.5000E+01  0.5000E+01
     -8.961  0.0000E+00  0.0000E+00  0.5000E+01  0.5000E+01
     -8.853  0.0000E+00  0.0000E+00  0.5000E+01  0.5000E+01
     -8.746  0.0000E+00  0.0000E+00  0.5000E+01  0.5000E+01
     -8.638  0.0000E+00  0.0000E+00  0.5000E+01  0.5000E+01
     -8.531  0.0000E+00  0.0000E+00  0.5000E+01  0.5000E+01
     -8.423  0.0000E+00  0.0000E+00  0.5000E+01  0.5000E+01
     -8.315  0.0000E+00  0.0000E+00  0.5000E+01  0.5000E+01
     -8.208  0.0000E+00  0.0000E+00  0.5000E+01  0.5000E+01
     -8.100  0.0000E+00  0.0000E+00  0.5000E+01  0.5000E+01
     -7.992  0.0000E+00  0.0000E+00  0.5000E+01  0.5000E+01
     -7.885  0.0000E+00  0.0000E+00  0.5000E+01  0.5000E+01
     -7.777  0.0000E+00  0.0000E+00  0.5000E+01  0.5000E+01
     -7.669  0.0000E+00  0.0000E+00  0.5000E+01  0.5000E+01
     -7.562  0.0000E+00  0.0000E+00  0.5000E+01  0.5000E+01
     -7.454  0.0000E+00  0.0000E+00  0.5000E+01  0.5000E+01
     -7.347  0.0000E+00  0.0000E+00  0.5000E+01  0.5000E+01
     -7.239  0.0000E+00  0.0000E+00  0.5000E+01  0.5000E+01
     -7.131  0.0000E+00  0.0000E+00  0.5000E+01  0.5000E+01
     -7.024  0.0000E+00  0.0000E+00  0.5000E+01  0.5000E+01
     -6.916  0.0000E+00  0.0000E+00  0.5000E+01  0.5000E+01
     -6.808  0.0000E+00  0.0000E+00  0.5000E+01  0.5000E+01
     -6.701  0.0000E+00  0.0000E+00  0.5000E+01  0.5000E+01
     -6.593  0.0000E+00  0.0000E+00  0.5000E+01  0.5000E+01
     -6.486  0.0000E+00  0.0000E+00  0.5000E+01  0.5000E+01
     -6.378  0.0000E+00  0.0000E+00  0.5000E+01  0.5000E+01
     -6.270  0.0000E+00  0.0000E+00  0.5000E+01  0.5000E+01
     -6.163  0.0000E+00  0.0000E+00  0.5000E+01  0.5000E+01
     -6.055  0.0000E+00  0.0000E+00  0.5000E+01  0.5000E+01
     -5.947  0.0000E+00  0.0000E+00  0.5000E+01  0.5000E+01
     -5.840  0.0000E+00  0.0000E+00  0.5000E+01  0.5000E+01
     -5.732  0.0000E+00  0.0000E+00  0.5000E+01  0.5000E+01
     -5.625  0.0000E+00  0.0000E+00  0.5000E+01  0.5000E+01
     -5.517  0.0000E+00  0.0000E+00  0.5000E+01  0.5000E+01
     -5.409  0.0000E+00  0.0000E+00  0.5000E+01  0.5000E+01
     -5.302  0.0000E+00  0.0000E+00  0.5000E+01  0.5000E+01
     -5.194  0.0000E+00  0.0000E+00  0.5000E+01  0.5000E+01
     -5.086  0.0000E+00  0.0000E+00  0.5000E+01  0.5000E+01
     -4.979  0.0000E+00  0.0000E+00  0.5000E+01  0.5000E+01
     -4.871  0.0000E+00  0.0000E+00  0.5000E+01  0.5000E+01
     -4.764  0.0000E+00  0.0000E+00  0.5000E+01  0.5000E+01
     -4.656  0.0000E+00  0.0000E+00  0.5000E+01  0.5000E+01
     -4.548  0.0000E+00  0.0000E+00  0.5000E+01  0.5000E+01
     -4.441  0.0000E+00  0.0000E+00  0.5000E+01  0.5000E+01
     -4.333  0.0000E+00  0.0000E+00  0.5000E+01  0.5000E+01
     -4.225  0.0000E+00  0.0000E+00  0.5000E+01  0.5000E+01
     -4.118  0.0000E+00  0.0000E+00  0.5000E+01  0.5000E+01
     -4.010  0.0000E+00  0.0000E+00  0.5000E+01  0.5000E+01
     -3.903  0.0000E+00  0.0000E+00  0.5000E+01  0.5000E+01
     -3.795  0.0000E+00  0.0000E+00  0.5000E+01  0.5000E+01
     -3.687  0.0000E+00  0.0000E+00  0.5000E+01  0.5000E+01
     -3.580  0.0000E+00  0.0000E+00  0.5000E+01  0.5000E+01
     -3.472  0.0000E+00  0.0000E+00  0.5000E+01  0.5000E+01
     -3.364  0.0000E+00  0.0000E+00  0.5000E+01  0.5000E+01
     -3.257  0.0000E+00  0.0000E+00  0.5000E+01  0.5000E+01
     -3.149  0.0000E+00  0.0000E+00  0.5000E+01  0.5000E+01
     -3.042  0.0000E+00  0.0000E+00  0.5000E+01  0.5000E+01
     -2.934  0.0000E+00  0.0000E+00  0.5000E+01  0.5000E+01
     -2.826  0.0000E+00  0.0000E+00  0.5000E+01  0.5000E+01
     -2.719  0.0000E+00  0.0000E+00  0.5000E+01  0.5000E+01
     -2.611  0.0000E+00  0.0000E+00  0.5000E+01  0.5000E+01
     -2.503  0.0000E+00  0.0000E+00  0.5000E+01  0.5000E+01
     -2.396  0.0000E+00  0.0000E+00  0.5000E+01  0.5000E+01
     -2.288  0.0000E+00  0.0000E+00  0.5000E+01  0.5000E+01
     -2.181  0.0000E+00  0.0000E+00  0.5000E+01  0.5000E+01
     -2.073  0.0000E+00  0.0000E+00  0.5000E+01  0.5000E+01
     -1.965  0.0000E+00  0.0000E+00  0.5000E+01  0.5000E+01
     -1.858  0.0000E+00  0.0000E+00  0.5000E+01  0.5000E+01
     -1.750  0.0000E+00  0.0000E+00  0.5000E+01  0.5000E+01
     -1.642  0.1671E+01  0.1679E+01  0.5180E+01  0.5181E+01
     -1.535  0.1691E+02  0.1690E+02  0.7000E+01  0.7000E+01
     -1.427  0.0000E+00  0.0000E+00  0.7000E+01  0.7000E+01
     -1.320  0.0000E+00  0.0000E+00  0.7000E+01  0.7000E+01
     -1.212  0.0000E+00  0.0000E+00  0.7000E+01  0.7000E+01
     -1.104  0.0000E+00  0.0000E+00  0.7000E+01  0.7000E+01
     -0.997  0.0000E+00  0.0000E+00  0.7000E+01  0.7000E+01
     -0.889  0.0000E+00  0.0000E+00  0.7000E+01  0.7000E+01
     -0.781  0.0000E+00  0.0000E+00  0.7000E+01  0.7000E+01
     -0.674  0.0000E+00  0.0000E+00  0.7000E+01  0.7000E+01
     -0.566  0.8796E-10  0.4560E-09  0.7000E+01  0.7000E+01
     -0.459  0.7572E+01  0.8111E+01  0.7815E+01  0.7873E+01
     -0.351  0.1719E+01  0.1180E+01  0.8000E+01  0.8000E+01
     -0.243  0.0000E+00  0.0000E+00  0.8000E+01  0.8000E+01
     -0.136  0.8374E-04  0.6900E-08  0.8000E+01  0.8000E+01
     -0.028  0.1846E+02  0.1480E+02  0.9987E+01  0.9593E+01
      0.080  0.1224E+00  0.3785E+01  0.1000E+02  0.1000E+02
      0.187  0.0000E+00  0.0000E+00  0.1000E+02  0.1000E+02
      0.295  0.7685E-04  0.9686E-12  0.1000E+02  0.1000E+02
      0.402  0.9907E+01  0.5650E+01  0.1107E+02  0.1061E+02
      0.510  0.8676E+01  0.1293E+02  0.1200E+02  0.1200E+02
      0.618  0.0000E+00  0.0000E+00  0.1200E+02  0.1200E+02
      0.725  0.0000E+00  0.0000E+00  0.1200E+02  0.1200E+02
      0.833  0.0000E+00  0.0000E+00  0.1200E+02  0.1200E+02
      0.941  0.0000E+00  0.0000E+00  0.1200E+02  0.1200E+02
      1.048  0.0000E+00  0.0000E+00  0.1200E+02  0.1200E+02
      1.156  0.0000E+00  0.0000E+00  0.1200E+02  0.1200E+02
      1.263  0.0000E+00  0.0000E+00  0.1200E+02  0.1200E+02
      1.371  0.0000E+00  0.0000E+00  0.1200E+02  0.1200E+02
      1.479  0.0000E+00  0.0000E+00  0.1200E+02  0.1200E+02
      1.586  0.0000E+00  0.0000E+00  0.1200E+02  0.1200E+02
      1.694  0.0000E+00  0.0000E+00  0.1200E+02  0.1200E+02
      1.802  0.0000E+00  0.0000E+00  0.1200E+02  0.1200E+02
      1.909  0.0000E+00  0.0000E+00  0.1200E+02  0.1200E+02
