    2    2    1    2
  0.1965315E+04  0.1230000E-08  0.1230000E-08  0.3000000E-08  0.2000000E-15
  1.000000000000000E-004
  CAR 
 ***                                     
     10      1     12
 
  0.0000000E+00  0.0000000E+00  0.0000000E+00  0.1000000E+01
    1      -28.910944    -28.910945   1.000000   1.000000
    2      -13.203851    -13.203852   1.000000   1.000000
    3      -11.933330    -11.933330   1.000000   1.000000
    4      -11.933069    -11.933069   1.000000   1.000000
    5      -10.246787    -10.246787   1.000000   1.000000
    6       -1.624017     -1.624059   0.000000   0.000000
    7       -1.622908     -1.622935   0.000000   0.000000
    8       -0.471233     -0.474687   0.000000   0.000000
    9       -0.075025     -0.050176   0.000000   0.000000
   10       -0.059653     -0.033560   0.000000   0.000000
   11        0.355735      0.398673   0.000000   0.000000
   12        0.423673      0.441587   0.000000   0.000000
