       N       E                     dE             d eps       ncg     rms          rms(c)
DAV:   1     0.782124949919E+02    0.78212E+02   -0.16761E+03    72   0.262E+02
DAV:   2    -0.320683159665E+01   -0.81419E+02   -0.75098E+02    88   0.972E+01
DAV:   3    -0.136299933013E+02   -0.10423E+02   -0.10418E+02    64   0.500E+01
DAV:   4    -0.137608055429E+02   -0.13081E+00   -0.13010E+00    64   0.754E+00
DAV:   5    -0.137631844114E+02   -0.23789E-02   -0.23788E-02    72   0.743E-01    0.114E+01
DAV:   6    -0.131287943225E+02    0.63439E+00   -0.19243E+00    48   0.726E+00    0.534E+00
DAV:   7    -0.133580290278E+02   -0.22923E+00   -0.53695E-01    48   0.388E+00    0.300E+00
DAV:   8    -0.134092145196E+02   -0.51185E-01   -0.17414E-01    56   0.259E+00    0.111E+00
DAV:   9    -0.134274531207E+02   -0.18239E-01   -0.90854E-03    48   0.793E-01    0.519E-01
DAV:  10    -0.134307333836E+02   -0.32803E-02   -0.42699E-03    56   0.396E-01    0.323E-01
DAV:  11    -0.134341320336E+02   -0.33987E-02   -0.47623E-04    56   0.179E-01    0.281E-01
DAV:  12    -0.134439864451E+02   -0.98544E-02   -0.11270E-03    52   0.254E-01    0.196E-01
DAV:  13    -0.134509856332E+02   -0.69992E-02   -0.16763E-03    52   0.292E-01    0.113E-01
DAV:  14    -0.134538887730E+02   -0.29031E-02   -0.65737E-04    48   0.172E-01    0.725E-02
DAV:  15    -0.134557459859E+02   -0.18572E-02   -0.40353E-04    52   0.120E-01    0.414E-02
DAV:  16    -0.134564041628E+02   -0.65818E-03   -0.62822E-05    52   0.529E-02    0.337E-02
DAV:  17    -0.134572824231E+02   -0.87826E-03   -0.76236E-05    48   0.586E-02    0.243E-02
DAV:  18    -0.134573841362E+02   -0.10171E-03   -0.43516E-05    48   0.460E-02    0.172E-02
DAV:  19    -0.134574058956E+02   -0.21759E-04   -0.95067E-06    52   0.234E-02    0.125E-02
DAV:  20    -0.134573933256E+02    0.12570E-04   -0.17466E-05    48   0.308E-02    0.465E-03
DAV:  21    -0.134574077369E+02   -0.14411E-04   -0.69219E-06    48   0.235E-02    0.181E-03
DAV:  22    -0.134574758715E+02   -0.68135E-04   -0.35691E-06    52   0.162E-02    0.955E-04
DAV:  23    -0.134575008764E+02   -0.25005E-04   -0.19685E-06    48   0.107E-02    0.576E-04
DAV:  24    -0.134575309704E+02   -0.30094E-04   -0.17577E-06    48   0.789E-03    0.337E-04
DAV:  25    -0.134575446430E+02   -0.13673E-04   -0.53331E-07    48   0.542E-03    0.206E-04
DAV:  26    -0.134575488132E+02   -0.41701E-05   -0.18902E-07    52   0.362E-03
   1 F= -.13457549E+02 E0= -.13457549E+02  d E =-.134575E+02  mag=     0.0000
