<?xml version="1.0" encoding="ISO-8859-1"?>
<modeling>
 <generator>
  <i name="program" type="string">vasp </i>
  <i name="version" type="string">6.1.0  </i>
  <i name="subversion" type="string">28Jan20 (build Oct 20 2020 21:06:44) complex                          parallel </i>
  <i name="platform" type="string">LinuxIFC </i>
  <i name="date" type="string">2020 10 26 </i>
  <i name="time" type="string">20:29:23 </i>
 </generator>
 <incar>
  <i type="string" name="SYSTEM"> ***</i>
  <i type="int" name="ISTART">     0</i>
  <i type="string" name="PREC"> Normal</i>
  <i type="int" name="ISPIN">     2</i>
  <i type="int" name="IBRION">     2</i>
  <i name="EDIFF">      0.00001000</i>
  <i name="EDIFFG">     -0.05000000</i>
  <i type="int" name="NSW">     1</i>
  <i type="int" name="ISIF">     2</i>
  <i type="int" name="ISYM">     0</i>
  <i name="ENCUT">    400.00000000</i>
  <i name="POTIM">      0.20000000</i>
  <i type="string" name="LREAL"> Auto</i>
  <i type="int" name="ISMEAR">     0</i>
  <i name="SIGMA">      0.02000000</i>
  <i type="logical" name="LWAVE"> F  </i>
  <i type="logical" name="LCHARG"> F  </i>
  <i type="logical" name="LASPH"> T  </i>
  <i type="int" name="NPAR">     4</i>
  <i type="string" name="GGA"> MK</i>
  <i name="PARAM1">      0.12340000</i>
  <i name="PARAM2">      1.00000000</i>
  <i type="logical" name="LUSE_VDW"> T  </i>
  <i name="AGGAC">      0.00000000</i>
  <i name="EDIFF">      0.00001000</i>
  <i type="logical" name="LASPH"> T  </i>
  <i type="int" name="ISPIN">     2</i>
 </incar>
 <structure name="primitive_cell" >
  <crystal>
   <varray name="basis" >
    <v>      12.30000019       0.00000000       0.00000000 </v>
    <v>      -6.15000010      10.65211263       0.00000000 </v>
    <v>       0.00000000       0.00000000      30.00000000 </v>
   </varray>
   <i name="volume">   3930.62962204 </i>
   <varray name="rec_basis" >
    <v>       0.08130081       0.04693905       0.00000000 </v>
    <v>       0.00000000       0.09387809       0.00000000 </v>
    <v>       0.00000000       0.00000000       0.03333333 </v>
   </varray>
  </crystal>
  <varray name="positions" >
   <v>       0.67319134       0.66981775       0.61216517 </v>
   <v>       0.57357419       0.62827773       0.61428676 </v>
  </varray>
 </structure>
 <varray name="primitive_index" >
  <v type="int" >        1 </v>
  <v type="int" >        2 </v>
 </varray>
 <kpoints>
  <generation param="Monkhorst-Pack">
   <v type="int" name="divisions">       1        1        1 </v>
   <v name="usershift">      0.00000000       0.00000000       0.00000000 </v>
   <v name="genvec1">      1.00000000       0.00000000       0.00000000 </v>
   <v name="genvec2">      0.00000000       1.00000000       0.00000000 </v>
   <v name="genvec3">      0.00000000       0.00000000       1.00000000 </v>
   <v name="shift">      0.00000000       0.00000000       0.00000000 </v>
  </generation>
  <varray name="kpointlist" >
   <v>       0.00000000       0.00000000       0.00000000 </v>
  </varray>
  <varray name="weights" >
   <v>       1.00000000 </v>
  </varray>
 </kpoints>
 <parameters>
  <separator name="general" >
   <i type="string" name="SYSTEM">***</i>
   <i type="logical" name="LCOMPAT"> F  </i>
  </separator>
  <separator name="electronic" >
   <i type="string" name="PREC">normal</i>
   <i name="ENMAX">    400.00000000</i>
   <i name="ENAUG">    627.11200000</i>
   <i name="EDIFF">      0.00001000</i>
   <i type="int" name="IALGO">    38</i>
   <i type="int" name="IWAVPR">    11</i>
   <i type="int" name="NBANDS">    12</i>
   <i type="int" name="NBANDSLOW">    -1</i>
   <i type="int" name="NBANDSHIGH">    -1</i>
   <i name="NELECT">     10.00000000</i>
   <i type="int" name="TURBO">     0</i>
   <i type="int" name="IRESTART">     0</i>
   <i type="int" name="NREBOOT">     0</i>
   <i type="int" name="NMIN">     0</i>
   <i name="EREF">      0.00000000</i>
   <separator name="electronic smearing" >
    <i type="int" name="ISMEAR">     0</i>
    <i name="SIGMA">      0.02000000</i>
    <i name="KSPACING">      0.50000000</i>
    <i type="logical" name="KGAMMA"> T  </i>
    <i type="logical" name="KBLOWUP"> T  </i>
   </separator>
   <separator name="electronic projectors" >
    <i type="logical" name="LREAL"> T  </i>
    <v name="ROPT">     -0.00050000</v>
    <i type="int" name="LMAXPAW">  -100</i>
    <i type="int" name="LMAXMIX">     2</i>
    <i type="logical" name="NLSPLINE"> F  </i>
   </separator>
   <separator name="electronic startup" >
    <i type="int" name="ISTART">     0</i>
    <i type="int" name="ICHARG">     2</i>
    <i type="int" name="INIWAV">     1</i>
   </separator>
   <separator name="electronic spin" >
    <i type="int" name="ISPIN">     2</i>
    <i type="logical" name="LNONCOLLINEAR"> F  </i>
    <v name="MAGMOM">      1.00000000      1.00000000</v>
    <i name="NUPDOWN">     -1.00000000</i>
    <i type="logical" name="LSORBIT"> F  </i>
    <v name="SAXIS">      0.00000000      0.00000000      1.00000000</v>
    <i type="logical" name="LSPIRAL"> F  </i>
    <v name="QSPIRAL">      0.00000000      0.00000000      0.00000000</v>
    <i type="logical" name="LZEROZ"> F  </i>
   </separator>
   <separator name="electronic exchange-correlation" >
    <i type="logical" name="LASPH"> T  </i>
    <i type="logical" name="LMETAGGA"> F  </i>
   </separator>
   <separator name="electronic convergence" >
    <i type="int" name="NELM">    60</i>
    <i type="int" name="NELMDL">    -5</i>
    <i type="int" name="NELMIN">     2</i>
    <i name="ENINI">    400.00000000</i>
    <separator name="electronic convergence detail" >
     <i type="logical" name="LDIAG"> T  </i>
     <i type="logical" name="LSUBROT"> F  </i>
     <i name="WEIMIN">      0.00100000</i>
     <i name="EBREAK">      0.00000021</i>
     <i name="DEPER">      0.30000000</i>
     <i type="int" name="NRMM">     4</i>
     <i name="TIME">      0.40000000</i>
    </separator>
   </separator>
   <separator name="electronic mixer" >
    <i name="AMIX">      0.40000000</i>
    <i name="BMIX">      1.00000000</i>
    <i name="AMIN">      0.10000000</i>
    <i name="AMIX_MAG">      1.60000000</i>
    <i name="BMIX_MAG">      1.00000000</i>
    <separator name="electronic mixer details" >
     <i type="int" name="IMIX">     4</i>
     <i type="logical" name="MIXFIRST"> F  </i>
     <i type="int" name="MAXMIX">   -45</i>
     <i name="WC">    100.00000000</i>
     <i type="int" name="INIMIX">     1</i>
     <i type="int" name="MIXPRE">     1</i>
     <i type="int" name="MREMOVE">     5</i>
    </separator>
   </separator>
   <separator name="electronic dipolcorrection" >
    <i type="logical" name="LDIPOL"> F  </i>
    <i type="logical" name="LMONO"> F  </i>
    <i type="int" name="IDIPOL">     0</i>
    <i name="EPSILON">      1.00000000</i>
    <v name="DIPOL">   -100.00000000   -100.00000000   -100.00000000</v>
    <i name="EFIELD">      0.00000000</i>
   </separator>
  </separator>
  <separator name="grids" >
   <i type="int" name="NGX">    60</i>
   <i type="int" name="NGY">    60</i>
   <i type="int" name="NGZ">   150</i>
   <i type="int" name="NGXF">   120</i>
   <i type="int" name="NGYF">   120</i>
   <i type="int" name="NGZF">   300</i>
   <i type="logical" name="ADDGRID"> F  </i>
  </separator>
  <separator name="ionic" >
   <i type="int" name="NSW">     1</i>
   <i type="int" name="IBRION">     2</i>
   <i type="int" name="MDALGO">     0</i>
   <i type="int" name="ISIF">     2</i>
   <i name="PSTRESS">      0.00000000</i>
   <i name="EDIFFG">     -0.05000000</i>
   <i type="int" name="NFREE">     1</i>
   <i name="POTIM">      0.20000000</i>
   <i name="SMASS">     -3.00000000</i>
   <i name="SCALEE">      1.00000000</i>
  </separator>
  <separator name="ionic md" >
   <i name="TEBEG">      0.00010000</i>
   <i name="TEEND">      0.00010000</i>
   <i type="int" name="NBLOCK">     1</i>
   <i type="int" name="KBLOCK">     1</i>
   <i type="int" name="NPACO">   256</i>
   <i name="APACO">     16.00000000</i>
  </separator>
  <separator name="symmetry" >
   <i type="int" name="ISYM">     0</i>
   <i name="SYMPREC">      0.00001000</i>
  </separator>
  <separator name="dos" >
   <i type="int" name="LORBIT">     0</i>
   <v name="RWIGS">     -1.00000000</v>
   <i type="int" name="NEDOS">   301</i>
   <i name="EMIN">     10.00000000</i>
   <i name="EMAX">    -10.00000000</i>
   <i name="EFERMI">      0.00000000</i>
  </separator>
  <separator name="writing" >
   <i type="int" name="NWRITE">     2</i>
   <i type="logical" name="LWAVE"> F  </i>
   <i type="logical" name="LDOWNSAMPLE"> F  </i>
   <i type="logical" name="LCHARG"> F  </i>
   <i type="logical" name="LPARD"> F  </i>
   <i type="logical" name="LVTOT"> F  </i>
   <i type="logical" name="LVHAR"> F  </i>
   <i type="logical" name="LELF"> F  </i>
   <i type="logical" name="LOPTICS"> F  </i>
   <v name="STM">      0.00000000      0.00000000      0.00000000      0.00000000      0.00000000      0.00000000      0.00000000</v>
  </separator>
  <separator name="performance" >
   <i type="int" name="NPAR">     4</i>
   <i type="int" name="NSIM">     4</i>
   <i type="int" name="NBLK">    -1</i>
   <i type="logical" name="LPLANE"> T  </i>
   <i type="logical" name="LSCALAPACK"> T  </i>
   <i type="logical" name="LSCAAWARE"> F  </i>
   <i type="logical" name="LSCALU"> F  </i>
   <i type="logical" name="LASYNC"> F  </i>
   <i type="logical" name="LORBITALREAL"> F  </i>
  </separator>
  <separator name="miscellaneous" >
   <i type="int" name="IDIOT">     3</i>
   <i type="int" name="PHON_NSTRUCT">    -1</i>
   <i type="logical" name="LMUSIC"> F  </i>
   <v name="POMASS">     14.00100000</v>
   <v name="DARWINR">      0.00000000</v>
   <v name="DARWINV">      1.00000000</v>
   <i type="logical" name="LCORR"> T  </i>
  </separator>
  <i type="logical" name="GGA_COMPAT"> T  </i>
  <i type="logical" name="LBERRY"> F  </i>
  <i type="int" name="ICORELEVEL">     0</i>
  <i type="logical" name="LDAU"> F  </i>
  <i type="int" name="I_CONSTRAINED_M">     0</i>
  <separator name="electronic exchange-correlation" >
   <i type="string" name="GGA">MK</i>
   <i type="int" name="VOSKOWN">     0</i>
   <i type="logical" name="LHFCALC"> F  </i>
   <i type="string" name="PRECFOCK"></i>
   <i type="logical" name="LSYMGRAD"> F  </i>
   <i type="logical" name="LHFONE"> F  </i>
   <i type="logical" name="LRHFCALC"> F  </i>
   <i type="logical" name="LTHOMAS"> F  </i>
   <i type="logical" name="LMODELHF"> F  </i>
   <i type="logical" name="LFOCKACE"> F  </i>
   <i name="ENCUT4O">     -1.00000000</i>
   <i type="int" name="EXXOEP">     0</i>
   <i type="int" name="FOURORBIT">     0</i>
   <i name="AEXX">      0.00000000</i>
   <i name="HFALPHA">      0.00000000</i>
   <i name="MCALPHA">      0.00000000</i>
   <i name="ALDAX">      1.00000000</i>
   <i name="AGGAX">      1.00000000</i>
   <i name="ALDAC">      1.00000000</i>
   <i name="AGGAC">      0.00000000</i>
   <i type="int" name="NKREDX">     1</i>
   <i type="int" name="NKREDY">     1</i>
   <i type="int" name="NKREDZ">     1</i>
   <i type="logical" name="SHIFTRED"> F  </i>
   <i type="logical" name="ODDONLY"> F  </i>
   <i type="logical" name="EVENONLY"> F  </i>
   <i type="int" name="LMAXFOCK">     0</i>
   <i type="int" name="NMAXFOCKAE">     0</i>
   <i type="logical" name="LFOCKAEDFT"> F  </i>
   <i name="HFSCREEN">      0.00000000</i>
   <i name="HFSCREENC">      0.00000000</i>
   <i type="int" name="NBANDSGWLOW">     0</i>
  </separator>
  <separator name="vdW DFT" >
   <i type="logical" name="LUSE_VDW"> T  </i>
   <i name="Zab_VDW">     -0.84910000</i>
   <i name="PARAM1">      0.12340000</i>
   <i name="PARAM2">      1.00000000</i>
   <i name="PARAM3">      0.00000000</i>
  </separator>
  <separator name="model GW" >
   <i type="int" name="MODEL_GW">     0</i>
   <i name="MODEL_EPS0">   1179.18888661</i>
   <i name="MODEL_ALPHA">      1.00000000</i>
  </separator>
  <separator name="linear response parameters" >
   <i type="logical" name="LEPSILON"> F  </i>
   <i type="logical" name="LRPA"> F  </i>
   <i type="logical" name="LNABLA"> F  </i>
   <i type="logical" name="LVEL"> F  </i>
   <i type="int" name="KINTER">     0</i>
   <i name="CSHIFT">      0.10000000</i>
   <i name="OMEGAMAX">     -1.00000000</i>
   <i name="DEG_THRESHOLD">      0.00200000</i>
   <i name="RTIME">     -0.10000000</i>
   <i name="WPLASMAI">      0.00000000</i>
   <v name="DFIELD">      0.00000000      0.00000000      0.00000000</v>
   <v name="WPLASMA">      0.00000000      0.00000000      0.00000000      0.00000000      0.00000000      0.00000000      0.00000000      0.00000000      0.00000000</v>
  </separator>
  <separator name="orbital magnetization" >
   <i type="logical" name="NUCIND"> F  </i>
   <v name="MAGPOS">      0.00000000      0.00000000      0.00000000</v>
   <i type="logical" name="LNICSALL"> T  </i>
   <i type="logical" name="ORBITALMAG"> F  </i>
   <i type="logical" name="LMAGBLOCH"> F  </i>
   <i type="logical" name="LCHIMAG"> F  </i>
   <i type="logical" name="LGAUGE"> T  </i>
   <i type="int" name="MAGATOM">     0</i>
   <v name="MAGDIPOL">      0.00000000      0.00000000      0.00000000</v>
   <v name="AVECCONST">      0.00000000      0.00000000      0.00000000</v>
  </separator>
  <separator name="response functions" >
   <i type="logical" name="LFINITE_TEMPERATURE"> F  </i>
   <i type="logical" name="LADDER"> F  </i>
   <i type="logical" name="LRPAFORCE"> F  </i>
   <i type="logical" name="LFXC"> F  </i>
   <i type="logical" name="LHARTREE"> T  </i>
   <i type="int" name="IBSE">     0</i>
   <v type="int" name="KPOINT">    -1     0     0     0</v>
   <i type="logical" name="LTCTC"> F  </i>
   <i type="logical" name="LTCTE"> F  </i>
   <i type="logical" name="LTETE"> F  </i>
   <i type="logical" name="LTRIPLET"> F  </i>
   <i type="logical" name="LFXCEPS"> F  </i>
   <i type="logical" name="LFXHEG"> F  </i>
   <i type="int" name="NATURALO">     2</i>
   <i type="logical" name="LHOLEGF"> F  </i>
   <i type="logical" name="L2ORDER"> F  </i>
   <i type="logical" name="LDMP1"> F  </i>
   <i type="logical" name="LMP2LT"> F  </i>
   <i type="logical" name="LSMP2LT"> F  </i>
   <i type="logical" name="LGWLF"> F  </i>
   <i name="ENCUTGW">     -2.00000000</i>
   <i name="ENCUTGWSOFT">     -2.00000000</i>
   <i name="ENCUTLF">     -1.00000000</i>
   <i type="logical" name="LESF_SPLINES"> F  </i>
   <i type="int" name="LMAXMP2">    -1</i>
   <i name="SCISSOR">      0.00000000</i>
   <i type="int" name="NOMEGA">     0</i>
   <i type="int" name="NOMEGAR">     0</i>
   <i type="int" name="NBANDSGW">    -1</i>
   <i type="int" name="NBANDSO">    -1</i>
   <i type="int" name="NBANDSV">    -1</i>
   <i type="int" name="NELM">     1</i>
   <i type="int" name="NELMHF">     1</i>
   <i type="int" name="DIM">     3</i>
   <i type="int" name="IESPILON">     4</i>
   <i type="int" name="ANTIRES">     0</i>
   <i name="OMEGAMAX">    -30.00000000</i>
   <i name="OMEGAMIN">    -30.00000000</i>
   <i name="OMEGATL">   -200.00000000</i>
   <i type="int" name="OMEGAGRID">     0</i>
   <i name="CSHIFT">     -0.10000000</i>
   <i type="logical" name="LSELFENERGY"> F  </i>
   <i type="logical" name="LSPECTRAL"> F  </i>
   <i type="logical" name="LSPECTRALGW"> F  </i>
   <i type="logical" name="LSINGLES"> F  </i>
   <i type="logical" name="LFERMIGW"> F  </i>
   <i type="logical" name="ODDONLYGW"> F  </i>
   <i type="logical" name="EVENONLYGW"> F  </i>
   <i type="int" name="NKREDLFX">     1</i>
   <i type="int" name="NKREDLFY">     1</i>
   <i type="int" name="NKREDLFZ">     1</i>
   <i type="int" name="MAXMEM">  2800</i>
   <i type="int" name="TELESCOPE">     0</i>
   <i type="int" name="NTAUPAR">    -1</i>
   <i type="int" name="NOMEGAPAR">    -1</i>
   <i name="LAMBDA">      1.00000000</i>
  </separator>
  <separator name="External order field" >
   <i name="OFIELD_KAPPA">      0.00000000</i>
   <v name="OFIELD_K">      0.00000000      0.00000000      0.00000000</v>
   <i name="OFIELD_Q6_NEAR">      0.00000000</i>
   <i name="OFIELD_Q6_FAR">      0.00000000</i>
   <i name="OFIELD_A">      0.00000000</i>
  </separator>
 </parameters>
 <atominfo>
  <atoms>       2 </atoms>
  <types>       1 </types>
  <array name="atoms" >
   <dimension dim="1">ion</dimension>
   <field type="string">element</field>
   <field type="int">atomtype</field>
   <set>
    <rc><c>N </c><c>   1</c></rc>
    <rc><c>N </c><c>   1</c></rc>
   </set>
  </array>
  <array name="atomtypes" >
   <dimension dim="1">type</dimension>
   <field type="int">atomspertype</field>
   <field type="string">element</field>
   <field>mass</field>
   <field>valence</field>
   <field type="string">pseudopotential</field>
   <set>
    <rc><c>   2</c><c>N </c><c>     14.00100000</c><c>      5.00000000</c><c>  PAW_PBE N 08Apr2002                   </c></rc>
   </set>
  </array>
 </atominfo>
 <structure name="initialpos" >
  <crystal>
   <varray name="basis" >
    <v>      12.30000019       0.00000000       0.00000000 </v>
    <v>      -6.15000010      10.65211263       0.00000000 </v>
    <v>       0.00000000       0.00000000      30.00000000 </v>
   </varray>
   <i name="volume">   3930.62962204 </i>
   <varray name="rec_basis" >
    <v>       0.08130081       0.04693905       0.00000000 </v>
    <v>       0.00000000       0.09387809       0.00000000 </v>
    <v>       0.00000000       0.00000000       0.03333333 </v>
   </varray>
  </crystal>
  <varray name="positions" >
   <v>       0.67319134       0.66981775       0.61216517 </v>
   <v>       0.57357419       0.62827773       0.61428676 </v>
  </varray>
  <varray name="selective"  type="logical" >
   <v type="logical" >  T  T  T </v>
   <v type="logical" >  T  T  T </v>
  </varray>
  <nose>
   <v>      -3.00000000       0.00000000       0.00010000       0.00010000 </v>
  </nose>
 </structure>
 <calculation>
  <scstep>
   <time name="dav">    0.16    0.16</time>
   <time name="total">    5.73    5.74</time>
   <energy>
    <i name="alphaZ">      0.10964755 </i>
    <i name="ewald">    263.71473417 </i>
    <i name="hartreedc">   -669.54932130 </i>
    <i name="XCdc">     38.42301838 </i>
    <i name="pawpsdc">    410.25990033 </i>
    <i name="pawaedc">   -411.71252035 </i>
    <i name="eentropy">     -0.01089200 </i>
    <i name="bandstr">    -84.18247494 </i>
    <i name="atom">    531.16040315 </i>
    <i name="e_fr_energy">     78.21249499 </i>
    <i name="e_wo_entrp">     78.22338699 </i>
    <i name="e_0_energy">     78.21794099 </i>
   </energy>
  </scstep>
  <scstep>
   <time name="dav">    0.17    0.18</time>
   <time name="total">    0.17    0.18</time>
   <energy>
    <i name="e_fr_energy">     -3.20683160 </i>
    <i name="e_wo_entrp">     -3.20683160 </i>
    <i name="e_0_energy">     -3.20683160 </i>
   </energy>
  </scstep>
  <scstep>
   <time name="dav">    0.13    0.13</time>
   <time name="total">    0.13    0.14</time>
   <energy>
    <i name="e_fr_energy">    -13.62999330 </i>
    <i name="e_wo_entrp">    -13.62999330 </i>
    <i name="e_0_energy">    -13.62999330 </i>
   </energy>
  </scstep>
  <scstep>
   <time name="dav">    0.13    0.13</time>
   <time name="total">    0.13    0.13</time>
   <energy>
    <i name="e_fr_energy">    -13.76080554 </i>
    <i name="e_wo_entrp">    -13.76080554 </i>
    <i name="e_0_energy">    -13.76080554 </i>
   </energy>
  </scstep>
  <scstep>
   <time name="dav">    0.15    0.15</time>
   <time name="total">    0.18    0.18</time>
   <energy>
    <i name="e_fr_energy">    -13.76318441 </i>
    <i name="e_wo_entrp">    -13.76318441 </i>
    <i name="e_0_energy">    -13.76318441 </i>
   </energy>
  </scstep>
  <scstep>
   <time name="dav">    0.11    0.11</time>
   <time name="total">    5.35    5.35</time>
   <energy>
    <i name="e_fr_energy">    -13.12879432 </i>
    <i name="e_wo_entrp">    -13.12879432 </i>
    <i name="e_0_energy">    -13.12879432 </i>
   </energy>
  </scstep>
  <scstep>
   <time name="dav">    0.11    0.11</time>
   <time name="total">    5.83    5.97</time>
   <energy>
    <i name="e_fr_energy">    -13.35802903 </i>
    <i name="e_wo_entrp">    -13.35802903 </i>
    <i name="e_0_energy">    -13.35802903 </i>
   </energy>
  </scstep>
  <scstep>
   <time name="dav">    0.12    0.12</time>
   <time name="total">    5.34    5.38</time>
   <energy>
    <i name="e_fr_energy">    -13.40921452 </i>
    <i name="e_wo_entrp">    -13.40921452 </i>
    <i name="e_0_energy">    -13.40921452 </i>
   </energy>
  </scstep>
  <scstep>
   <time name="dav">    0.11    0.11</time>
   <time name="total">    5.67    5.68</time>
   <energy>
    <i name="e_fr_energy">    -13.42745312 </i>
    <i name="e_wo_entrp">    -13.42745312 </i>
    <i name="e_0_energy">    -13.42745312 </i>
   </energy>
  </scstep>
  <scstep>
   <time name="dav">    0.12    0.12</time>
   <time name="total">    5.61    5.62</time>
   <energy>
    <i name="e_fr_energy">    -13.43073338 </i>
    <i name="e_wo_entrp">    -13.43073338 </i>
    <i name="e_0_energy">    -13.43073338 </i>
   </energy>
  </scstep>
  <scstep>
   <time name="dav">    0.12    0.12</time>
   <time name="total">    5.35    5.36</time>
   <energy>
    <i name="e_fr_energy">    -13.43413203 </i>
    <i name="e_wo_entrp">    -13.43413203 </i>
    <i name="e_0_energy">    -13.43413203 </i>
   </energy>
  </scstep>
  <scstep>
   <time name="dav">    0.12    0.12</time>
   <time name="total">    5.34    5.34</time>
   <energy>
    <i name="e_fr_energy">    -13.44398645 </i>
    <i name="e_wo_entrp">    -13.44398645 </i>
    <i name="e_0_energy">    -13.44398645 </i>
   </energy>
  </scstep>
  <scstep>
   <time name="dav">    0.12    0.12</time>
   <time name="total">    5.33    5.33</time>
   <energy>
    <i name="e_fr_energy">    -13.45098563 </i>
    <i name="e_wo_entrp">    -13.45098563 </i>
    <i name="e_0_energy">    -13.45098563 </i>
   </energy>
  </scstep>
  <scstep>
   <time name="dav">    0.11    0.11</time>
   <time name="total">    5.32    5.32</time>
   <energy>
    <i name="e_fr_energy">    -13.45388877 </i>
    <i name="e_wo_entrp">    -13.45388877 </i>
    <i name="e_0_energy">    -13.45388877 </i>
   </energy>
  </scstep>
  <scstep>
   <time name="dav">    0.12    0.12</time>
   <time name="total">    5.35    5.36</time>
   <energy>
    <i name="e_fr_energy">    -13.45574599 </i>
    <i name="e_wo_entrp">    -13.45574599 </i>
    <i name="e_0_energy">    -13.45574599 </i>
   </energy>
  </scstep>
  <scstep>
   <time name="dav">    0.12    0.12</time>
   <time name="total">    5.33    5.33</time>
   <energy>
    <i name="e_fr_energy">    -13.45640416 </i>
    <i name="e_wo_entrp">    -13.45640416 </i>
    <i name="e_0_energy">    -13.45640416 </i>
   </energy>
  </scstep>
  <scstep>
   <time name="dav">    0.11    0.11</time>
   <time name="total">    5.33    5.34</time>
   <energy>
    <i name="e_fr_energy">    -13.45728242 </i>
    <i name="e_wo_entrp">    -13.45728242 </i>
    <i name="e_0_energy">    -13.45728242 </i>
   </energy>
  </scstep>
  <scstep>
   <time name="dav">    0.11    0.11</time>
   <time name="total">    5.33    5.33</time>
   <energy>
    <i name="e_fr_energy">    -13.45738414 </i>
    <i name="e_wo_entrp">    -13.45738414 </i>
    <i name="e_0_energy">    -13.45738414 </i>
   </energy>
  </scstep>
  <scstep>
   <time name="dav">    0.12    0.12</time>
   <time name="total">    5.34    5.35</time>
   <energy>
    <i name="e_fr_energy">    -13.45740590 </i>
    <i name="e_wo_entrp">    -13.45740590 </i>
    <i name="e_0_energy">    -13.45740590 </i>
   </energy>
  </scstep>
  <scstep>
   <time name="dav">    0.11    0.11</time>
   <time name="total">    5.32    5.33</time>
   <energy>
    <i name="e_fr_energy">    -13.45739333 </i>
    <i name="e_wo_entrp">    -13.45739333 </i>
    <i name="e_0_energy">    -13.45739333 </i>
   </energy>
  </scstep>
  <scstep>
   <time name="dav">    0.11    0.11</time>
   <time name="total">    5.35    5.35</time>
   <energy>
    <i name="e_fr_energy">    -13.45740774 </i>
    <i name="e_wo_entrp">    -13.45740774 </i>
    <i name="e_0_energy">    -13.45740774 </i>
   </energy>
  </scstep>
  <scstep>
   <time name="dav">    0.12    0.12</time>
   <time name="total">    5.33    5.33</time>
   <energy>
    <i name="e_fr_energy">    -13.45747587 </i>
    <i name="e_wo_entrp">    -13.45747587 </i>
    <i name="e_0_energy">    -13.45747587 </i>
   </energy>
  </scstep>
  <scstep>
   <time name="dav">    0.11    0.11</time>
   <time name="total">    5.33    5.34</time>
   <energy>
    <i name="e_fr_energy">    -13.45750088 </i>
    <i name="e_wo_entrp">    -13.45750088 </i>
    <i name="e_0_energy">    -13.45750088 </i>
   </energy>
  </scstep>
  <scstep>
   <time name="dav">    0.11    0.11</time>
   <time name="total">    5.33    5.33</time>
   <energy>
    <i name="e_fr_energy">    -13.45753097 </i>
    <i name="e_wo_entrp">    -13.45753097 </i>
    <i name="e_0_energy">    -13.45753097 </i>
   </energy>
  </scstep>
  <scstep>
   <time name="dav">    0.11    0.11</time>
   <time name="total">    5.34    5.34</time>
   <energy>
    <i name="e_fr_energy">    -13.45754464 </i>
    <i name="e_wo_entrp">    -13.45754464 </i>
    <i name="e_0_energy">    -13.45754464 </i>
   </energy>
  </scstep>
  <scstep>
   <time name="dav">    0.12    0.12</time>
   <time name="total">    5.32    5.32</time>
   <energy>
    <i name="alphaZ">      0.10964755 </i>
    <i name="ewald">    263.71473417 </i>
    <i name="hartreedc">   -693.63195539 </i>
    <i name="XCdc">     39.48826717 </i>
    <i name="pawpsdc">   1033.41756528 </i>
    <i name="pawaedc">  -1035.26024549 </i>
    <i name="eentropy">     -0.00000000 </i>
    <i name="bandstr">   -152.45596526 </i>
    <i name="atom">    531.16040315 </i>
    <i name="e_fr_energy">    -13.45754881 </i>
    <i name="e_wo_entrp">    -13.45754881 </i>
    <i name="e_0_energy">    -13.45754881 </i>
   </energy>
  </scstep>
  <structure>
   <crystal>
    <varray name="basis" >
     <v>      12.30000019       0.00000000       0.00000000 </v>
     <v>      -6.15000010      10.65211263       0.00000000 </v>
     <v>       0.00000000       0.00000000      30.00000000 </v>
    </varray>
    <i name="volume">   3930.62962204 </i>
    <varray name="rec_basis" >
     <v>       0.08130081       0.04693905       0.00000000 </v>
     <v>       0.00000000       0.09387809       0.00000000 </v>
     <v>       0.00000000       0.00000000       0.03333333 </v>
    </varray>
   </crystal>
   <varray name="positions" >
    <v>       0.67319134       0.66981775       0.61216517 </v>
    <v>       0.57357419       0.62827773       0.61428676 </v>
   </varray>
  </structure>
  <varray name="forces" >
   <v>       7.88360935       3.60399526      -0.50376282 </v>
   <v>      -7.88360935      -3.60399526       0.50376282 </v>
  </varray>
  <varray name="stress" >
   <v>       2.55604398       1.35698005      -0.19652468 </v>
   <v>       1.35697992       0.17225526      -0.09002669 </v>
   <v>      -0.19652464      -0.09002668      -0.42716844 </v>
  </varray>
  <energy>
   <i name="e_fr_energy">    -13.45754881 </i>
   <i name="e_wo_entrp">    -13.45754881 </i>
   <i name="e_0_energy">    -13.45754881 </i>
  </energy>
  <time name="totalsc">  130.07  130.37</time>
  <eigenvalues>
   <array>
    <dimension dim="1">band</dimension>
    <dimension dim="2">kpoint</dimension>
    <dimension dim="3">spin</dimension>
    <field>eigene</field>
    <field>occ</field>
    <set>
     <set comment="spin 1">
      <set comment="kpoint 1">
       <r>  -28.9109    1.0000 </r>
       <r>  -13.2039    1.0000 </r>
       <r>  -11.9333    1.0000 </r>
       <r>  -11.9331    1.0000 </r>
       <r>  -10.2468    1.0000 </r>
       <r>   -1.6240    0.0000 </r>
       <r>   -1.6229    0.0000 </r>
       <r>   -0.4712    0.0000 </r>
       <r>   -0.0750    0.0000 </r>
       <r>   -0.0597    0.0000 </r>
       <r>    0.3557    0.0000 </r>
       <r>    0.4237    0.0000 </r>
      </set>
     </set>
     <set comment="spin 2">
      <set comment="kpoint 1">
       <r>  -28.9109    1.0000 </r>
       <r>  -13.2039    1.0000 </r>
       <r>  -11.9333    1.0000 </r>
       <r>  -11.9331    1.0000 </r>
       <r>  -10.2468    1.0000 </r>
       <r>   -1.6241    0.0000 </r>
       <r>   -1.6229    0.0000 </r>
       <r>   -0.4747    0.0000 </r>
       <r>   -0.0502    0.0000 </r>
       <r>   -0.0336    0.0000 </r>
       <r>    0.3987    0.0000 </r>
       <r>    0.4416    0.0000 </r>
      </set>
     </set>
    </set>
   </array>
  </eigenvalues>
  <separator name="orbital magnetization" >
   <v name="MAGDIPOLOUT">      0.00000000      0.00000000      0.00000000</v>
  </separator>
  <dos>
   <i name="efermi">    -10.11798665 </i>
   <total>
    <array>
     <dimension dim="1">gridpoints</dimension>
     <dimension dim="2">spin</dimension>
     <field>energy</field>
     <field>total</field>
     <field>integrated</field>
     <set>
      <set comment="spin 1">
       <r>   -30.3786     0.0000     0.0000 </r>
       <r>   -30.2709     0.0000     0.0000 </r>
       <r>   -30.1633     0.0000     0.0000 </r>
       <r>   -30.0557     0.0000     0.0000 </r>
       <r>   -29.9481     0.0000     0.0000 </r>
       <r>   -29.8404     0.0000     0.0000 </r>
       <r>   -29.7328     0.0000     0.0000 </r>
       <r>   -29.6252     0.0000     0.0000 </r>
       <r>   -29.5176     0.0000     0.0000 </r>
       <r>   -29.4099     0.0000     0.0000 </r>
       <r>   -29.3023     0.0000     0.0000 </r>
       <r>   -29.1947     0.0000     0.0000 </r>
       <r>   -29.0871     0.0000     0.0000 </r>
       <r>   -28.9794     0.0000     0.0000 </r>
       <r>   -28.8718     9.2652     0.9972 </r>
       <r>   -28.7642     0.0263     1.0000 </r>
       <r>   -28.6566     0.0000     1.0000 </r>
       <r>   -28.5489     0.0000     1.0000 </r>
       <r>   -28.4413     0.0000     1.0000 </r>
       <r>   -28.3337     0.0000     1.0000 </r>
       <r>   -28.2261     0.0000     1.0000 </r>
       <r>   -28.1184     0.0000     1.0000 </r>
       <r>   -28.0108     0.0000     1.0000 </r>
       <r>   -27.9032     0.0000     1.0000 </r>
       <r>   -27.7955     0.0000     1.0000 </r>
       <r>   -27.6879     0.0000     1.0000 </r>
       <r>   -27.5803     0.0000     1.0000 </r>
       <r>   -27.4727     0.0000     1.0000 </r>
       <r>   -27.3650     0.0000     1.0000 </r>
       <r>   -27.2574     0.0000     1.0000 </r>
       <r>   -27.1498     0.0000     1.0000 </r>
       <r>   -27.0422     0.0000     1.0000 </r>
       <r>   -26.9345     0.0000     1.0000 </r>
       <r>   -26.8269     0.0000     1.0000 </r>
       <r>   -26.7193     0.0000     1.0000 </r>
       <r>   -26.6117     0.0000     1.0000 </r>
       <r>   -26.5040     0.0000     1.0000 </r>
       <r>   -26.3964     0.0000     1.0000 </r>
       <r>   -26.2888     0.0000     1.0000 </r>
       <r>   -26.1812     0.0000     1.0000 </r>
       <r>   -26.0735     0.0000     1.0000 </r>
       <r>   -25.9659     0.0000     1.0000 </r>
       <r>   -25.8583     0.0000     1.0000 </r>
       <r>   -25.7507     0.0000     1.0000 </r>
       <r>   -25.6430     0.0000     1.0000 </r>
       <r>   -25.5354     0.0000     1.0000 </r>
       <r>   -25.4278     0.0000     1.0000 </r>
       <r>   -25.3202     0.0000     1.0000 </r>
       <r>   -25.2125     0.0000     1.0000 </r>
       <r>   -25.1049     0.0000     1.0000 </r>
       <r>   -24.9973     0.0000     1.0000 </r>
       <r>   -24.8896     0.0000     1.0000 </r>
       <r>   -24.7820     0.0000     1.0000 </r>
       <r>   -24.6744     0.0000     1.0000 </r>
       <r>   -24.5668     0.0000     1.0000 </r>
       <r>   -24.4591     0.0000     1.0000 </r>
       <r>   -24.3515     0.0000     1.0000 </r>
       <r>   -24.2439     0.0000     1.0000 </r>
       <r>   -24.1363     0.0000     1.0000 </r>
       <r>   -24.0286     0.0000     1.0000 </r>
       <r>   -23.9210     0.0000     1.0000 </r>
       <r>   -23.8134     0.0000     1.0000 </r>
       <r>   -23.7058     0.0000     1.0000 </r>
       <r>   -23.5981     0.0000     1.0000 </r>
       <r>   -23.4905     0.0000     1.0000 </r>
       <r>   -23.3829     0.0000     1.0000 </r>
       <r>   -23.2753     0.0000     1.0000 </r>
       <r>   -23.1676     0.0000     1.0000 </r>
       <r>   -23.0600     0.0000     1.0000 </r>
       <r>   -22.9524     0.0000     1.0000 </r>
       <r>   -22.8448     0.0000     1.0000 </r>
       <r>   -22.7371     0.0000     1.0000 </r>
       <r>   -22.6295     0.0000     1.0000 </r>
       <r>   -22.5219     0.0000     1.0000 </r>
       <r>   -22.4143     0.0000     1.0000 </r>
       <r>   -22.3066     0.0000     1.0000 </r>
       <r>   -22.1990     0.0000     1.0000 </r>
       <r>   -22.0914     0.0000     1.0000 </r>
       <r>   -21.9837     0.0000     1.0000 </r>
       <r>   -21.8761     0.0000     1.0000 </r>
       <r>   -21.7685     0.0000     1.0000 </r>
       <r>   -21.6609     0.0000     1.0000 </r>
       <r>   -21.5532     0.0000     1.0000 </r>
       <r>   -21.4456     0.0000     1.0000 </r>
       <r>   -21.3380     0.0000     1.0000 </r>
       <r>   -21.2304     0.0000     1.0000 </r>
       <r>   -21.1227     0.0000     1.0000 </r>
       <r>   -21.0151     0.0000     1.0000 </r>
       <r>   -20.9075     0.0000     1.0000 </r>
       <r>   -20.7999     0.0000     1.0000 </r>
       <r>   -20.6922     0.0000     1.0000 </r>
       <r>   -20.5846     0.0000     1.0000 </r>
       <r>   -20.4770     0.0000     1.0000 </r>
       <r>   -20.3694     0.0000     1.0000 </r>
       <r>   -20.2617     0.0000     1.0000 </r>
       <r>   -20.1541     0.0000     1.0000 </r>
       <r>   -20.0465     0.0000     1.0000 </r>
       <r>   -19.9389     0.0000     1.0000 </r>
       <r>   -19.8312     0.0000     1.0000 </r>
       <r>   -19.7236     0.0000     1.0000 </r>
       <r>   -19.6160     0.0000     1.0000 </r>
       <r>   -19.5084     0.0000     1.0000 </r>
       <r>   -19.4007     0.0000     1.0000 </r>
       <r>   -19.2931     0.0000     1.0000 </r>
       <r>   -19.1855     0.0000     1.0000 </r>
       <r>   -19.0778     0.0000     1.0000 </r>
       <r>   -18.9702     0.0000     1.0000 </r>
       <r>   -18.8626     0.0000     1.0000 </r>
       <r>   -18.7550     0.0000     1.0000 </r>
       <r>   -18.6473     0.0000     1.0000 </r>
       <r>   -18.5397     0.0000     1.0000 </r>
       <r>   -18.4321     0.0000     1.0000 </r>
       <r>   -18.3245     0.0000     1.0000 </r>
       <r>   -18.2168     0.0000     1.0000 </r>
       <r>   -18.1092     0.0000     1.0000 </r>
       <r>   -18.0016     0.0000     1.0000 </r>
       <r>   -17.8940     0.0000     1.0000 </r>
       <r>   -17.7863     0.0000     1.0000 </r>
       <r>   -17.6787     0.0000     1.0000 </r>
       <r>   -17.5711     0.0000     1.0000 </r>
       <r>   -17.4635     0.0000     1.0000 </r>
       <r>   -17.3558     0.0000     1.0000 </r>
       <r>   -17.2482     0.0000     1.0000 </r>
       <r>   -17.1406     0.0000     1.0000 </r>
       <r>   -17.0330     0.0000     1.0000 </r>
       <r>   -16.9253     0.0000     1.0000 </r>
       <r>   -16.8177     0.0000     1.0000 </r>
       <r>   -16.7101     0.0000     1.0000 </r>
       <r>   -16.6025     0.0000     1.0000 </r>
       <r>   -16.4948     0.0000     1.0000 </r>
       <r>   -16.3872     0.0000     1.0000 </r>
       <r>   -16.2796     0.0000     1.0000 </r>
       <r>   -16.1719     0.0000     1.0000 </r>
       <r>   -16.0643     0.0000     1.0000 </r>
       <r>   -15.9567     0.0000     1.0000 </r>
       <r>   -15.8491     0.0000     1.0000 </r>
       <r>   -15.7414     0.0000     1.0000 </r>
       <r>   -15.6338     0.0000     1.0000 </r>
       <r>   -15.5262     0.0000     1.0000 </r>
       <r>   -15.4186     0.0000     1.0000 </r>
       <r>   -15.3109     0.0000     1.0000 </r>
       <r>   -15.2033     0.0000     1.0000 </r>
       <r>   -15.0957     0.0000     1.0000 </r>
       <r>   -14.9881     0.0000     1.0000 </r>
       <r>   -14.8804     0.0000     1.0000 </r>
       <r>   -14.7728     0.0000     1.0000 </r>
       <r>   -14.6652     0.0000     1.0000 </r>
       <r>   -14.5576     0.0000     1.0000 </r>
       <r>   -14.4499     0.0000     1.0000 </r>
       <r>   -14.3423     0.0000     1.0000 </r>
       <r>   -14.2347     0.0000     1.0000 </r>
       <r>   -14.1271     0.0000     1.0000 </r>
       <r>   -14.0194     0.0000     1.0000 </r>
       <r>   -13.9118     0.0000     1.0000 </r>
       <r>   -13.8042     0.0000     1.0000 </r>
       <r>   -13.6965     0.0000     1.0000 </r>
       <r>   -13.5889     0.0000     1.0000 </r>
       <r>   -13.4813     0.0000     1.0000 </r>
       <r>   -13.3737     0.0000     1.0000 </r>
       <r>   -13.2660     0.0001     1.0000 </r>
       <r>   -13.1584     9.2853     1.9993 </r>
       <r>   -13.0508     0.0061     2.0000 </r>
       <r>   -12.9432     0.0000     2.0000 </r>
       <r>   -12.8355     0.0000     2.0000 </r>
       <r>   -12.7279     0.0000     2.0000 </r>
       <r>   -12.6203     0.0000     2.0000 </r>
       <r>   -12.5127     0.0000     2.0000 </r>
       <r>   -12.4050     0.0000     2.0000 </r>
       <r>   -12.2974     0.0000     2.0000 </r>
       <r>   -12.1898     0.0000     2.0000 </r>
       <r>   -12.0822     0.0000     2.0000 </r>
       <r>   -11.9745     0.0322     2.0035 </r>
       <r>   -11.8669    18.5506     4.0000 </r>
       <r>   -11.7593     0.0000     4.0000 </r>
       <r>   -11.6517     0.0000     4.0000 </r>
       <r>   -11.5440     0.0000     4.0000 </r>
       <r>   -11.4364     0.0000     4.0000 </r>
       <r>   -11.3288     0.0000     4.0000 </r>
       <r>   -11.2212     0.0000     4.0000 </r>
       <r>   -11.1135     0.0000     4.0000 </r>
       <r>   -11.0059     0.0000     4.0000 </r>
       <r>   -10.8983     0.0000     4.0000 </r>
       <r>   -10.7906     0.0000     4.0000 </r>
       <r>   -10.6830     0.0000     4.0000 </r>
       <r>   -10.5754     0.0000     4.0000 </r>
       <r>   -10.4678     0.0000     4.0000 </r>
       <r>   -10.3601     0.0000     4.0000 </r>
       <r>   -10.2525     3.1836     4.3426 </r>
       <r>   -10.1449     6.1079     5.0000 </r>
       <r>   -10.0373     0.0000     5.0000 </r>
       <r>    -9.9296     0.0000     5.0000 </r>
       <r>    -9.8220     0.0000     5.0000 </r>
       <r>    -9.7144     0.0000     5.0000 </r>
       <r>    -9.6068     0.0000     5.0000 </r>
       <r>    -9.4991     0.0000     5.0000 </r>
       <r>    -9.3915     0.0000     5.0000 </r>
       <r>    -9.2839     0.0000     5.0000 </r>
       <r>    -9.1763     0.0000     5.0000 </r>
       <r>    -9.0686     0.0000     5.0000 </r>
       <r>    -8.9610     0.0000     5.0000 </r>
       <r>    -8.8534     0.0000     5.0000 </r>
       <r>    -8.7458     0.0000     5.0000 </r>
       <r>    -8.6381     0.0000     5.0000 </r>
       <r>    -8.5305     0.0000     5.0000 </r>
       <r>    -8.4229     0.0000     5.0000 </r>
       <r>    -8.3153     0.0000     5.0000 </r>
       <r>    -8.2076     0.0000     5.0000 </r>
       <r>    -8.1000     0.0000     5.0000 </r>
       <r>    -7.9924     0.0000     5.0000 </r>
       <r>    -7.8847     0.0000     5.0000 </r>
       <r>    -7.7771     0.0000     5.0000 </r>
       <r>    -7.6695     0.0000     5.0000 </r>
       <r>    -7.5619     0.0000     5.0000 </r>
       <r>    -7.4542     0.0000     5.0000 </r>
       <r>    -7.3466     0.0000     5.0000 </r>
       <r>    -7.2390     0.0000     5.0000 </r>
       <r>    -7.1314     0.0000     5.0000 </r>
       <r>    -7.0237     0.0000     5.0000 </r>
       <r>    -6.9161     0.0000     5.0000 </r>
       <r>    -6.8085     0.0000     5.0000 </r>
       <r>    -6.7009     0.0000     5.0000 </r>
       <r>    -6.5932     0.0000     5.0000 </r>
       <r>    -6.4856     0.0000     5.0000 </r>
       <r>    -6.3780     0.0000     5.0000 </r>
       <r>    -6.2704     0.0000     5.0000 </r>
       <r>    -6.1627     0.0000     5.0000 </r>
       <r>    -6.0551     0.0000     5.0000 </r>
       <r>    -5.9475     0.0000     5.0000 </r>
       <r>    -5.8399     0.0000     5.0000 </r>
       <r>    -5.7322     0.0000     5.0000 </r>
       <r>    -5.6246     0.0000     5.0000 </r>
       <r>    -5.5170     0.0000     5.0000 </r>
       <r>    -5.4094     0.0000     5.0000 </r>
       <r>    -5.3017     0.0000     5.0000 </r>
       <r>    -5.1941     0.0000     5.0000 </r>
       <r>    -5.0865     0.0000     5.0000 </r>
       <r>    -4.9788     0.0000     5.0000 </r>
       <r>    -4.8712     0.0000     5.0000 </r>
       <r>    -4.7636     0.0000     5.0000 </r>
       <r>    -4.6560     0.0000     5.0000 </r>
       <r>    -4.5483     0.0000     5.0000 </r>
       <r>    -4.4407     0.0000     5.0000 </r>
       <r>    -4.3331     0.0000     5.0000 </r>
       <r>    -4.2255     0.0000     5.0000 </r>
       <r>    -4.1178     0.0000     5.0000 </r>
       <r>    -4.0102     0.0000     5.0000 </r>
       <r>    -3.9026     0.0000     5.0000 </r>
       <r>    -3.7950     0.0000     5.0000 </r>
       <r>    -3.6873     0.0000     5.0000 </r>
       <r>    -3.5797     0.0000     5.0000 </r>
       <r>    -3.4721     0.0000     5.0000 </r>
       <r>    -3.3645     0.0000     5.0000 </r>
       <r>    -3.2568     0.0000     5.0000 </r>
       <r>    -3.1492     0.0000     5.0000 </r>
       <r>    -3.0416     0.0000     5.0000 </r>
       <r>    -2.9340     0.0000     5.0000 </r>
       <r>    -2.8263     0.0000     5.0000 </r>
       <r>    -2.7187     0.0000     5.0000 </r>
       <r>    -2.6111     0.0000     5.0000 </r>
       <r>    -2.5035     0.0000     5.0000 </r>
       <r>    -2.3958     0.0000     5.0000 </r>
       <r>    -2.2882     0.0000     5.0000 </r>
       <r>    -2.1806     0.0000     5.0000 </r>
       <r>    -2.0729     0.0000     5.0000 </r>
       <r>    -1.9653     0.0000     5.0000 </r>
       <r>    -1.8577     0.0000     5.0000 </r>
       <r>    -1.7501     0.0000     5.0000 </r>
       <r>    -1.6424     1.6714     5.1799 </r>
       <r>    -1.5348    16.9115     7.0000 </r>
       <r>    -1.4272     0.0000     7.0000 </r>
       <r>    -1.3196     0.0000     7.0000 </r>
       <r>    -1.2119     0.0000     7.0000 </r>
       <r>    -1.1043     0.0000     7.0000 </r>
       <r>    -0.9967     0.0000     7.0000 </r>
       <r>    -0.8891     0.0000     7.0000 </r>
       <r>    -0.7814     0.0000     7.0000 </r>
       <r>    -0.6738     0.0000     7.0000 </r>
       <r>    -0.5662     0.0000     7.0000 </r>
       <r>    -0.4586     7.5721     7.8150 </r>
       <r>    -0.3509     1.7194     8.0000 </r>
       <r>    -0.2433     0.0000     8.0000 </r>
       <r>    -0.1357     0.0001     8.0000 </r>
       <r>    -0.0281    18.4604     9.9868 </r>
       <r>     0.0796     0.1224    10.0000 </r>
       <r>     0.1872     0.0000    10.0000 </r>
       <r>     0.2948     0.0001    10.0000 </r>
       <r>     0.4024     9.9068    11.0662 </r>
       <r>     0.5101     8.6760    12.0000 </r>
       <r>     0.6177     0.0000    12.0000 </r>
       <r>     0.7253     0.0000    12.0000 </r>
       <r>     0.8330     0.0000    12.0000 </r>
       <r>     0.9406     0.0000    12.0000 </r>
       <r>     1.0482     0.0000    12.0000 </r>
       <r>     1.1558     0.0000    12.0000 </r>
       <r>     1.2635     0.0000    12.0000 </r>
       <r>     1.3711     0.0000    12.0000 </r>
       <r>     1.4787     0.0000    12.0000 </r>
       <r>     1.5863     0.0000    12.0000 </r>
       <r>     1.6940     0.0000    12.0000 </r>
       <r>     1.8016     0.0000    12.0000 </r>
       <r>     1.9092     0.0000    12.0000 </r>
      </set>
      <set comment="spin 2">
       <r>   -30.3786     0.0000     0.0000 </r>
       <r>   -30.2709     0.0000     0.0000 </r>
       <r>   -30.1633     0.0000     0.0000 </r>
       <r>   -30.0557     0.0000     0.0000 </r>
       <r>   -29.9481     0.0000     0.0000 </r>
       <r>   -29.8404     0.0000     0.0000 </r>
       <r>   -29.7328     0.0000     0.0000 </r>
       <r>   -29.6252     0.0000     0.0000 </r>
       <r>   -29.5176     0.0000     0.0000 </r>
       <r>   -29.4099     0.0000     0.0000 </r>
       <r>   -29.3023     0.0000     0.0000 </r>
       <r>   -29.1947     0.0000     0.0000 </r>
       <r>   -29.0871     0.0000     0.0000 </r>
       <r>   -28.9794     0.0000     0.0000 </r>
       <r>   -28.8718     9.2652     0.9972 </r>
       <r>   -28.7642     0.0263     1.0000 </r>
       <r>   -28.6566     0.0000     1.0000 </r>
       <r>   -28.5489     0.0000     1.0000 </r>
       <r>   -28.4413     0.0000     1.0000 </r>
       <r>   -28.3337     0.0000     1.0000 </r>
       <r>   -28.2261     0.0000     1.0000 </r>
       <r>   -28.1184     0.0000     1.0000 </r>
       <r>   -28.0108     0.0000     1.0000 </r>
       <r>   -27.9032     0.0000     1.0000 </r>
       <r>   -27.7955     0.0000     1.0000 </r>
       <r>   -27.6879     0.0000     1.0000 </r>
       <r>   -27.5803     0.0000     1.0000 </r>
       <r>   -27.4727     0.0000     1.0000 </r>
       <r>   -27.3650     0.0000     1.0000 </r>
       <r>   -27.2574     0.0000     1.0000 </r>
       <r>   -27.1498     0.0000     1.0000 </r>
       <r>   -27.0422     0.0000     1.0000 </r>
       <r>   -26.9345     0.0000     1.0000 </r>
       <r>   -26.8269     0.0000     1.0000 </r>
       <r>   -26.7193     0.0000     1.0000 </r>
       <r>   -26.6117     0.0000     1.0000 </r>
       <r>   -26.5040     0.0000     1.0000 </r>
       <r>   -26.3964     0.0000     1.0000 </r>
       <r>   -26.2888     0.0000     1.0000 </r>
       <r>   -26.1812     0.0000     1.0000 </r>
       <r>   -26.0735     0.0000     1.0000 </r>
       <r>   -25.9659     0.0000     1.0000 </r>
       <r>   -25.8583     0.0000     1.0000 </r>
       <r>   -25.7507     0.0000     1.0000 </r>
       <r>   -25.6430     0.0000     1.0000 </r>
       <r>   -25.5354     0.0000     1.0000 </r>
       <r>   -25.4278     0.0000     1.0000 </r>
       <r>   -25.3202     0.0000     1.0000 </r>
       <r>   -25.2125     0.0000     1.0000 </r>
       <r>   -25.1049     0.0000     1.0000 </r>
       <r>   -24.9973     0.0000     1.0000 </r>
       <r>   -24.8896     0.0000     1.0000 </r>
       <r>   -24.7820     0.0000     1.0000 </r>
       <r>   -24.6744     0.0000     1.0000 </r>
       <r>   -24.5668     0.0000     1.0000 </r>
       <r>   -24.4591     0.0000     1.0000 </r>
       <r>   -24.3515     0.0000     1.0000 </r>
       <r>   -24.2439     0.0000     1.0000 </r>
       <r>   -24.1363     0.0000     1.0000 </r>
       <r>   -24.0286     0.0000     1.0000 </r>
       <r>   -23.9210     0.0000     1.0000 </r>
       <r>   -23.8134     0.0000     1.0000 </r>
       <r>   -23.7058     0.0000     1.0000 </r>
       <r>   -23.5981     0.0000     1.0000 </r>
       <r>   -23.4905     0.0000     1.0000 </r>
       <r>   -23.3829     0.0000     1.0000 </r>
       <r>   -23.2753     0.0000     1.0000 </r>
       <r>   -23.1676     0.0000     1.0000 </r>
       <r>   -23.0600     0.0000     1.0000 </r>
       <r>   -22.9524     0.0000     1.0000 </r>
       <r>   -22.8448     0.0000     1.0000 </r>
       <r>   -22.7371     0.0000     1.0000 </r>
       <r>   -22.6295     0.0000     1.0000 </r>
       <r>   -22.5219     0.0000     1.0000 </r>
       <r>   -22.4143     0.0000     1.0000 </r>
       <r>   -22.3066     0.0000     1.0000 </r>
       <r>   -22.1990     0.0000     1.0000 </r>
       <r>   -22.0914     0.0000     1.0000 </r>
       <r>   -21.9837     0.0000     1.0000 </r>
       <r>   -21.8761     0.0000     1.0000 </r>
       <r>   -21.7685     0.0000     1.0000 </r>
       <r>   -21.6609     0.0000     1.0000 </r>
       <r>   -21.5532     0.0000     1.0000 </r>
       <r>   -21.4456     0.0000     1.0000 </r>
       <r>   -21.3380     0.0000     1.0000 </r>
       <r>   -21.2304     0.0000     1.0000 </r>
       <r>   -21.1227     0.0000     1.0000 </r>
       <r>   -21.0151     0.0000     1.0000 </r>
       <r>   -20.9075     0.0000     1.0000 </r>
       <r>   -20.7999     0.0000     1.0000 </r>
       <r>   -20.6922     0.0000     1.0000 </r>
       <r>   -20.5846     0.0000     1.0000 </r>
       <r>   -20.4770     0.0000     1.0000 </r>
       <r>   -20.3694     0.0000     1.0000 </r>
       <r>   -20.2617     0.0000     1.0000 </r>
       <r>   -20.1541     0.0000     1.0000 </r>
       <r>   -20.0465     0.0000     1.0000 </r>
       <r>   -19.9389     0.0000     1.0000 </r>
       <r>   -19.8312     0.0000     1.0000 </r>
       <r>   -19.7236     0.0000     1.0000 </r>
       <r>   -19.6160     0.0000     1.0000 </r>
       <r>   -19.5084     0.0000     1.0000 </r>
       <r>   -19.4007     0.0000     1.0000 </r>
       <r>   -19.2931     0.0000     1.0000 </r>
       <r>   -19.1855     0.0000     1.0000 </r>
       <r>   -19.0778     0.0000     1.0000 </r>
       <r>   -18.9702     0.0000     1.0000 </r>
       <r>   -18.8626     0.0000     1.0000 </r>
       <r>   -18.7550     0.0000     1.0000 </r>
       <r>   -18.6473     0.0000     1.0000 </r>
       <r>   -18.5397     0.0000     1.0000 </r>
       <r>   -18.4321     0.0000     1.0000 </r>
       <r>   -18.3245     0.0000     1.0000 </r>
       <r>   -18.2168     0.0000     1.0000 </r>
       <r>   -18.1092     0.0000     1.0000 </r>
       <r>   -18.0016     0.0000     1.0000 </r>
       <r>   -17.8940     0.0000     1.0000 </r>
       <r>   -17.7863     0.0000     1.0000 </r>
       <r>   -17.6787     0.0000     1.0000 </r>
       <r>   -17.5711     0.0000     1.0000 </r>
       <r>   -17.4635     0.0000     1.0000 </r>
       <r>   -17.3558     0.0000     1.0000 </r>
       <r>   -17.2482     0.0000     1.0000 </r>
       <r>   -17.1406     0.0000     1.0000 </r>
       <r>   -17.0330     0.0000     1.0000 </r>
       <r>   -16.9253     0.0000     1.0000 </r>
       <r>   -16.8177     0.0000     1.0000 </r>
       <r>   -16.7101     0.0000     1.0000 </r>
       <r>   -16.6025     0.0000     1.0000 </r>
       <r>   -16.4948     0.0000     1.0000 </r>
       <r>   -16.3872     0.0000     1.0000 </r>
       <r>   -16.2796     0.0000     1.0000 </r>
       <r>   -16.1719     0.0000     1.0000 </r>
       <r>   -16.0643     0.0000     1.0000 </r>
       <r>   -15.9567     0.0000     1.0000 </r>
       <r>   -15.8491     0.0000     1.0000 </r>
       <r>   -15.7414     0.0000     1.0000 </r>
       <r>   -15.6338     0.0000     1.0000 </r>
       <r>   -15.5262     0.0000     1.0000 </r>
       <r>   -15.4186     0.0000     1.0000 </r>
       <r>   -15.3109     0.0000     1.0000 </r>
       <r>   -15.2033     0.0000     1.0000 </r>
       <r>   -15.0957     0.0000     1.0000 </r>
       <r>   -14.9881     0.0000     1.0000 </r>
       <r>   -14.8804     0.0000     1.0000 </r>
       <r>   -14.7728     0.0000     1.0000 </r>
       <r>   -14.6652     0.0000     1.0000 </r>
       <r>   -14.5576     0.0000     1.0000 </r>
       <r>   -14.4499     0.0000     1.0000 </r>
       <r>   -14.3423     0.0000     1.0000 </r>
       <r>   -14.2347     0.0000     1.0000 </r>
       <r>   -14.1271     0.0000     1.0000 </r>
       <r>   -14.0194     0.0000     1.0000 </r>
       <r>   -13.9118     0.0000     1.0000 </r>
       <r>   -13.8042     0.0000     1.0000 </r>
       <r>   -13.6965     0.0000     1.0000 </r>
       <r>   -13.5889     0.0000     1.0000 </r>
       <r>   -13.4813     0.0000     1.0000 </r>
       <r>   -13.3737     0.0000     1.0000 </r>
       <r>   -13.2660     0.0001     1.0000 </r>
       <r>   -13.1584     9.2853     1.9993 </r>
       <r>   -13.0508     0.0061     2.0000 </r>
       <r>   -12.9432     0.0000     2.0000 </r>
       <r>   -12.8355     0.0000     2.0000 </r>
       <r>   -12.7279     0.0000     2.0000 </r>
       <r>   -12.6203     0.0000     2.0000 </r>
       <r>   -12.5127     0.0000     2.0000 </r>
       <r>   -12.4050     0.0000     2.0000 </r>
       <r>   -12.2974     0.0000     2.0000 </r>
       <r>   -12.1898     0.0000     2.0000 </r>
       <r>   -12.0822     0.0000     2.0000 </r>
       <r>   -11.9745     0.0322     2.0035 </r>
       <r>   -11.8669    18.5506     4.0000 </r>
       <r>   -11.7593     0.0000     4.0000 </r>
       <r>   -11.6517     0.0000     4.0000 </r>
       <r>   -11.5440     0.0000     4.0000 </r>
       <r>   -11.4364     0.0000     4.0000 </r>
       <r>   -11.3288     0.0000     4.0000 </r>
       <r>   -11.2212     0.0000     4.0000 </r>
       <r>   -11.1135     0.0000     4.0000 </r>
       <r>   -11.0059     0.0000     4.0000 </r>
       <r>   -10.8983     0.0000     4.0000 </r>
       <r>   -10.7906     0.0000     4.0000 </r>
       <r>   -10.6830     0.0000     4.0000 </r>
       <r>   -10.5754     0.0000     4.0000 </r>
       <r>   -10.4678     0.0000     4.0000 </r>
       <r>   -10.3601     0.0000     4.0000 </r>
       <r>   -10.2525     3.1835     4.3426 </r>
       <r>   -10.1449     6.1079     5.0000 </r>
       <r>   -10.0373     0.0000     5.0000 </r>
       <r>    -9.9296     0.0000     5.0000 </r>
       <r>    -9.8220     0.0000     5.0000 </r>
       <r>    -9.7144     0.0000     5.0000 </r>
       <r>    -9.6068     0.0000     5.0000 </r>
       <r>    -9.4991     0.0000     5.0000 </r>
       <r>    -9.3915     0.0000     5.0000 </r>
       <r>    -9.2839     0.0000     5.0000 </r>
       <r>    -9.1763     0.0000     5.0000 </r>
       <r>    -9.0686     0.0000     5.0000 </r>
       <r>    -8.9610     0.0000     5.0000 </r>
       <r>    -8.8534     0.0000     5.0000 </r>
       <r>    -8.7458     0.0000     5.0000 </r>
       <r>    -8.6381     0.0000     5.0000 </r>
       <r>    -8.5305     0.0000     5.0000 </r>
       <r>    -8.4229     0.0000     5.0000 </r>
       <r>    -8.3153     0.0000     5.0000 </r>
       <r>    -8.2076     0.0000     5.0000 </r>
       <r>    -8.1000     0.0000     5.0000 </r>
       <r>    -7.9924     0.0000     5.0000 </r>
       <r>    -7.8847     0.0000     5.0000 </r>
       <r>    -7.7771     0.0000     5.0000 </r>
       <r>    -7.6695     0.0000     5.0000 </r>
       <r>    -7.5619     0.0000     5.0000 </r>
       <r>    -7.4542     0.0000     5.0000 </r>
       <r>    -7.3466     0.0000     5.0000 </r>
       <r>    -7.2390     0.0000     5.0000 </r>
       <r>    -7.1314     0.0000     5.0000 </r>
       <r>    -7.0237     0.0000     5.0000 </r>
       <r>    -6.9161     0.0000     5.0000 </r>
       <r>    -6.8085     0.0000     5.0000 </r>
       <r>    -6.7009     0.0000     5.0000 </r>
       <r>    -6.5932     0.0000     5.0000 </r>
       <r>    -6.4856     0.0000     5.0000 </r>
       <r>    -6.3780     0.0000     5.0000 </r>
       <r>    -6.2704     0.0000     5.0000 </r>
       <r>    -6.1627     0.0000     5.0000 </r>
       <r>    -6.0551     0.0000     5.0000 </r>
       <r>    -5.9475     0.0000     5.0000 </r>
       <r>    -5.8399     0.0000     5.0000 </r>
       <r>    -5.7322     0.0000     5.0000 </r>
       <r>    -5.6246     0.0000     5.0000 </r>
       <r>    -5.5170     0.0000     5.0000 </r>
       <r>    -5.4094     0.0000     5.0000 </r>
       <r>    -5.3017     0.0000     5.0000 </r>
       <r>    -5.1941     0.0000     5.0000 </r>
       <r>    -5.0865     0.0000     5.0000 </r>
       <r>    -4.9788     0.0000     5.0000 </r>
       <r>    -4.8712     0.0000     5.0000 </r>
       <r>    -4.7636     0.0000     5.0000 </r>
       <r>    -4.6560     0.0000     5.0000 </r>
       <r>    -4.5483     0.0000     5.0000 </r>
       <r>    -4.4407     0.0000     5.0000 </r>
       <r>    -4.3331     0.0000     5.0000 </r>
       <r>    -4.2255     0.0000     5.0000 </r>
       <r>    -4.1178     0.0000     5.0000 </r>
       <r>    -4.0102     0.0000     5.0000 </r>
       <r>    -3.9026     0.0000     5.0000 </r>
       <r>    -3.7950     0.0000     5.0000 </r>
       <r>    -3.6873     0.0000     5.0000 </r>
       <r>    -3.5797     0.0000     5.0000 </r>
       <r>    -3.4721     0.0000     5.0000 </r>
       <r>    -3.3645     0.0000     5.0000 </r>
       <r>    -3.2568     0.0000     5.0000 </r>
       <r>    -3.1492     0.0000     5.0000 </r>
       <r>    -3.0416     0.0000     5.0000 </r>
       <r>    -2.9340     0.0000     5.0000 </r>
       <r>    -2.8263     0.0000     5.0000 </r>
       <r>    -2.7187     0.0000     5.0000 </r>
       <r>    -2.6111     0.0000     5.0000 </r>
       <r>    -2.5035     0.0000     5.0000 </r>
       <r>    -2.3958     0.0000     5.0000 </r>
       <r>    -2.2882     0.0000     5.0000 </r>
       <r>    -2.1806     0.0000     5.0000 </r>
       <r>    -2.0729     0.0000     5.0000 </r>
       <r>    -1.9653     0.0000     5.0000 </r>
       <r>    -1.8577     0.0000     5.0000 </r>
       <r>    -1.7501     0.0000     5.0000 </r>
       <r>    -1.6424     1.6789     5.1807 </r>
       <r>    -1.5348    16.9040     7.0000 </r>
       <r>    -1.4272     0.0000     7.0000 </r>
       <r>    -1.3196     0.0000     7.0000 </r>
       <r>    -1.2119     0.0000     7.0000 </r>
       <r>    -1.1043     0.0000     7.0000 </r>
       <r>    -0.9967     0.0000     7.0000 </r>
       <r>    -0.8891     0.0000     7.0000 </r>
       <r>    -0.7814     0.0000     7.0000 </r>
       <r>    -0.6738     0.0000     7.0000 </r>
       <r>    -0.5662     0.0000     7.0000 </r>
       <r>    -0.4586     8.1111     7.8730 </r>
       <r>    -0.3509     1.1803     8.0000 </r>
       <r>    -0.2433     0.0000     8.0000 </r>
       <r>    -0.1357     0.0000     8.0000 </r>
       <r>    -0.0281    14.7977     9.5926 </r>
       <r>     0.0796     3.7851    10.0000 </r>
       <r>     0.1872     0.0000    10.0000 </r>
       <r>     0.2948     0.0000    10.0000 </r>
       <r>     0.4024     5.6502    10.6081 </r>
       <r>     0.5101    12.9327    12.0000 </r>
       <r>     0.6177     0.0000    12.0000 </r>
       <r>     0.7253     0.0000    12.0000 </r>
       <r>     0.8330     0.0000    12.0000 </r>
       <r>     0.9406     0.0000    12.0000 </r>
       <r>     1.0482     0.0000    12.0000 </r>
       <r>     1.1558     0.0000    12.0000 </r>
       <r>     1.2635     0.0000    12.0000 </r>
       <r>     1.3711     0.0000    12.0000 </r>
       <r>     1.4787     0.0000    12.0000 </r>
       <r>     1.5863     0.0000    12.0000 </r>
       <r>     1.6940     0.0000    12.0000 </r>
       <r>     1.8016     0.0000    12.0000 </r>
       <r>     1.9092     0.0000    12.0000 </r>
      </set>
     </set>
    </array>
   </total>
  </dos>
 </calculation>
 <structure name="finalpos" >
  <crystal>
   <varray name="basis" >
    <v>      12.30000019       0.00000000       0.00000000 </v>
    <v>      -6.15000010      10.65211263       0.00000000 </v>
    <v>       0.00000000       0.00000000      30.00000000 </v>
   </varray>
   <i name="volume">   3930.62962204 </i>
   <varray name="rec_basis" >
    <v>       0.08130081       0.04693905       0.00000000 </v>
    <v>       0.00000000       0.09387809       0.00000000 </v>
    <v>       0.00000000       0.00000000       0.03333333 </v>
   </varray>
  </crystal>
  <varray name="positions" >
   <v>       0.67319134       0.66981775       0.61216517 </v>
   <v>       0.57357419       0.62827773       0.61428676 </v>
  </varray>
  <varray name="selective"  type="logical" >
   <v type="logical" >  T  T  T </v>
   <v type="logical" >  T  T  T </v>
  </varray>
  <nose>
   <v>      -3.00000000       0.00000000       0.00010000       0.00010000 </v>
  </nose>
 </structure>
</modeling>
