***                                     
           1
    12.300000    0.000000    0.000000
    -6.150000   10.652113    0.000000
     0.000000    0.000000   30.000000
   N 
     2
Direct configuration=     1
   0.67319134  0.66981775  0.61216517
   0.57357419  0.62827773  0.61428676
