/*--------------------------------*- C++ -*----------------------------------*\
| =========                 |                                                 |
| \\      /  F ield         | OpenFOAM: The Open Source CFD Toolbox           |
|  \\    /   O peration     | Version:  v2012                                 |
|   \\  /    A nd           | Website:  www.openfoam.com                      |
|    \\/     M anipulation  |                                                 |
\*---------------------------------------------------------------------------*/
FoamFile
{
    version     2.0;
    format      ascii;
    class       volScalarField;
    location    "0.15";
    object      p;
}
// * * * * * * * * * * * * * * * * * * * * * * * * * * * * * * * * * * * * * //

dimensions      [0 2 -2 0 0 0 0];


internalField   nonuniform List<scalar> 
1250
(
0.0372293
0.0438363
0.0503259
0.0566083
0.0625949
0.0682001
0.0733422
0.0779449
0.081939
0.0852642
0.087871
0.0897223
0.0907959
0.0910866
0.0906084
0.0893978
0.0875164
0.085055
0.0821383
0.0789308
0.075643
0.072538
0.0699426
0.0682626
0.0677556
0.0369316
0.0429017
0.0487651
0.0544412
0.0598507
0.0649172
0.0695683
0.0737371
0.0773632
0.080395
0.0827909
0.0845212
0.0855699
0.0859368
0.0856392
0.0847145
0.0832224
0.0812473
0.0789015
0.0763277
0.0737009
0.0712279
0.0691477
0.0677517
0.0672488
0.0366938
0.0421891
0.0475867
0.0528126
0.0577948
0.0624636
0.0667534
0.0706035
0.0739601
0.0767773
0.0790185
0.0806586
0.081685
0.0820995
0.08192
0.0811821
0.0799408
0.0782721
0.0762743
0.0740691
0.0718006
0.0696345
0.0677546
0.0663527
0.0655725
0.0364909
0.0416269
0.046673
0.0515605
0.0562225
0.0605942
0.064615
0.0682287
0.0713856
0.0740435
0.076169
0.0777392
0.0787428
0.0791815
0.0790718
0.0784454
0.077351
0.075855
0.0740416
0.0720124
0.0698854
0.0677958
0.0658882
0.0642567
0.0629626
0.0362928
0.041132
0.0458885
0.050498
0.0548978
0.0590272
0.0628292
0.0662512
0.0692463
0.0717748
0.0738053
0.0753157
0.0762947
0.0767429
0.0766738
0.0761146
0.0751066
0.0737062
0.0719835
0.0700218
0.0679153
0.0657741
0.0637114
0.0617238
0.0597845
0.0360913
0.0406943
0.0452214
0.0496117
0.0538057
0.057746
0.061378
0.0646516
0.067522
0.0699506
0.0719068
0.0733683
0.074323
0.0747691
0.0747165
0.074187
0.0732145
0.0718453
0.0701369
0.0681556
0.0659755
0.0636868
0.0613782
0.0589559
0.056314
0.0358774
0.0403047
0.0446622
0.0488918
0.0529364
0.0567405
0.0602514
0.0634204
0.0662035
0.0685626
0.0704666
0.0718925
0.0728258
0.0732621
0.073207
0.0726765
0.0716974
0.0703064
0.0685495
0.0664787
0.0641512
0.0616426
0.059024
0.0561212
0.0527603
0.0356394
0.0399483
0.0441933
0.0483179
0.0522667
0.0559854
0.0594224
0.0625292
0.065262
0.0675821
0.0694572
0.0708626
0.0717811
0.0722048
0.0721346
0.071581
0.0705634
0.0691103
0.0672574
0.0650449
0.0625162
0.0597367
0.0567657
0.0533585
0.0492832
0.0353648
0.0396104
0.0437975
0.0478709
0.0517757
0.0554585
0.0588676
0.0619543
0.0646738
0.0669864
0.0688578
0.0702607
0.0711748
0.0715882
0.071497
0.070906
0.069828
0.0682838
0.0663004
0.0639081
0.0611401
0.0580545
0.0547038
0.0507809
0.046004
0.0350403
0.0392761
0.0434587
0.0475334
0.0514455
0.0551413
0.0585685
0.0616776
0.0644223
0.0667606
0.0686559
0.0700776
0.0710021
0.0714127
0.0713009
0.0706657
0.0695139
0.0678591
0.0657214
0.0631228
0.0600884
0.0566728
0.0529247
0.0484812
0.043016
0.0346511
0.03893
0.0431609
0.047289
0.0512594
0.0550175
0.0585097
0.0616849
0.0644946
0.0668943
0.0688442
0.0703101
0.0712639
0.0716848
0.0715589
0.0708798
0.0696483
0.0678721
0.0655648
0.0627422
0.0594233
0.0556612
0.0515037
0.0465368
0.0403931
0.0341816
0.038556
0.0428878
0.0471218
0.0512019
0.0550723
0.0586777
0.0619645
0.0648816
0.0673812
0.0694199
0.0709592
0.0719666
0.0724161
0.0722886
0.0715724
0.0702625
0.0683612
0.0658767
0.0628195
0.0592043
0.0550843
0.0505086
0.0450147
0.0381969
0.0336146
0.0381371
0.0426229
0.0470157
0.0512581
0.0552923
0.0590608
0.0625071
0.0655768
0.0682183
0.0703839
0.0720305
0.0731205
0.0736226
0.0735122
0.0727719
0.0713915
0.069368
0.0667047
0.0634082
0.0594895
0.0550036
0.0500021
0.0439759
0.0364815
0.0329315
0.0376552
0.0423489
0.0469546
0.0514133
0.0556647
0.0596485
0.0633051
0.0665759
0.0694053
0.0717404
0.0735331
0.0747402
0.0753246
0.0752559
0.074511
0.073074
0.0709371
0.0680993
0.0645632
0.0603376
0.0554799
0.0500454
0.0434784
0.0352979
0.0321121
0.0370913
0.0420478
0.0469221
0.0516529
0.0561772
0.0604315
0.0643522
0.0678767
0.0709441
0.0734963
0.0754792
0.0768436
0.0775461
0.07755
0.076826
0.0753527
0.073117
0.0701138
0.0663424
0.0618093
0.0565752
0.0506997
0.0435801
0.034697
0.0311351
0.0364249
0.0417008
0.0469011
0.0519619
0.0568175
0.0614006
0.0656433
0.0694781
0.0728386
0.0756607
0.0778839
0.079452
0.0803148
0.0804287
0.0797577
0.0782743
0.0759602
0.0728058
0.068807
0.0639684
0.0583544
0.0520294
0.0443417
0.0347327
0.0299774
0.0356346
0.0412879
0.0468736
0.0523251
0.0575733
0.062547
0.0671736
0.0713802
0.0750942
0.0782449
0.0807646
0.0825896
0.0836618
0.08393
0.0833511
0.0818905
0.0795242
0.0762378
0.0720235
0.0668841
0.0608876
0.0541034
0.0458289
0.035464
0.0286153
0.0346979
0.0407884
0.0468211
0.0527265
0.058432
0.063862
0.0689388
0.0735836
0.0777174
0.0812618
0.0841411
0.0862833
0.0876217
0.0880964
0.0876559
0.0862581
0.0838722
0.0804785
0.076065
0.0706319
0.0642513
0.0569975
0.048114
0.0369568
0.0270241
0.0335915
0.040181
0.0467246
0.0531498
0.0593804
0.0653363
0.0709345
0.0760898
0.0807156
0.0847257
0.0880354
0.0905632
0.0922328
0.0929744
0.092727
0.0914399
0.0890742
0.0856039
0.081012
0.0752958
0.0685307
0.0607965
0.0512786
0.0392867
0.0251789
0.0322922
0.039444
0.0465644
0.0535781
0.0604052
0.066961
0.0731566
0.0789
0.084097
0.0886522
0.0924712
0.095462
0.0975369
0.0986153
0.098625
0.0975051
0.0952074
0.0916984
0.0869546
0.0809693
0.0738216
0.0655957
0.0554151
0.04254
0.0230555
0.0307767
0.0385557
0.0463209
0.0539945
0.0614928
0.0687264
0.0756006
0.0820163
0.0878705
0.0930584
0.0974745
0.101015
0.10358
0.105075
0.105417
0.10453
0.102358
0.0988561
0.0939935
0.0877582
0.0802319
0.0715035
0.0606292
0.0468165
0.0206312
0.0290231
0.0374955
0.0459752
0.0543822
0.0626295
0.0706231
0.0782623
0.0854404
0.0920455
0.0979621
0.103073
0.10726
0.110411
0.112416
0.113175
0.112601
0.110622
0.107183
0.102242
0.0957816
0.0878844
0.0786435
0.0670422
0.0522313
0.0178856
0.0270116
0.0362442
0.0455094
0.0547255
0.0638025
0.072642
0.0811375
0.0891745
0.0966317
0.103382
0.109295
0.114239
0.118084
0.120703
0.121981
0.121811
0.120106
0.116796
0.111829
0.105175
0.096919
0.087157
0.0747932
0.0589173
0.0148029
0.024726
0.0347857
0.044908
0.05501
0.0649996
0.0747744
0.0842222
0.0932209
0.101639
0.109338
0.116173
0.121995
0.126657
0.130012
0.131923
0.132265
0.13093
0.127831
0.122898
0.116092
0.107496
0.0972066
0.0840426
0.0670281
0.0113725
0.0221549
0.0331079
0.0441585
0.055224
0.0662106
0.0770128
0.0875133
0.0975823
0.107079
0.115851
0.123738
0.130575
0.136191
0.140419
0.143098
0.144078
0.143227
0.140435
0.135615
0.128709
0.119798
0.108979
0.0949756
0.0767415
0.00759174
0.0192936
0.0312044
0.0432534
0.0553592
0.0674277
0.0793514
0.0910083
0.102262
0.112961
0.122941
0.132025
0.140026
0.146753
0.152011
0.155612
0.157377
0.157145
0.154779
0.150165
0.143227
0.134036
0.12269
0.107806
0.0882629
0.00346738
0.0161458
0.0290759
0.0421909
0.0554121
0.0686468
0.0817865
0.0947062
0.107263
0.119297
0.130629
0.141066
0.150399
0.158411
0.164879
0.169582
0.172305
0.172852
0.171054
0.166763
0.159876
0.150455
0.13859
0.122783
0.101831
-0.000981872
0.0127258
0.0267322
0.0409767
0.0553851
0.0698678
0.0843175
0.0986075
0.11259
0.126097
0.138936
0.150895
0.161745
0.171239
0.179121
0.185131
0.189015
0.190534
0.189474
0.18565
0.178922
0.169335
0.156968
0.140196
0.117723
-0.00572329
0.00906021
0.0241941
0.0396256
0.0552877
0.0710962
0.086947
0.102714
0.118247
0.13337
0.14788
0.161546
0.174115
0.18531
0.194837
0.202393
0.207677
0.210395
0.210284
0.207104
0.200672
0.191004
0.178166
0.160382
0.136262
-0.0107087
0.00518982
0.0214942
0.0381625
0.0551374
0.072343
0.0896814
0.10703
0.124238
0.141125
0.157477
0.173047
0.187557
0.200697
0.212133
0.221512
0.228475
0.232667
0.233758
0.231443
0.22548
0.215846
0.202581
0.183742
0.15783
-0.015871
0.00117112
0.0186787
0.0366232
0.0549603
0.0736254
0.0925304
0.111559
0.130565
0.149365
0.167738
0.185422
0.202114
0.217472
0.231115
0.242636
0.251608
0.257602
0.260206
0.259033
0.253759
0.244311
0.230686
0.210748
0.182875
-0.0211259
-0.00292328
0.0158076
0.0350552
0.0547912
0.0749664
0.0955063
0.116306
0.137227
0.158088
0.178664
0.198683
0.217819
0.235695
0.251884
0.265916
0.277286
0.285478
0.289977
0.290291
0.285993
0.276931
0.263045
0.241964
0.211932
-0.0263698
-0.00700457
0.0129546
0.0335163
0.0546724
0.0763931
0.0986225
0.121272
0.144216
0.167281
0.190246
0.21283
0.234689
0.255415
0.274531
0.291499
0.305729
0.316596
0.323462
0.3257
0.322747
0.314342
0.300335
0.278076
0.245646
-0.0314817
-0.0109693
0.0102049
0.0320733
0.0546518
0.0779349
0.10189
0.126452
0.151513
0.176918
0.202453
0.227838
0.252718
0.276656
0.299127
0.319524
0.337156
0.351275
0.361094
0.365813
0.364689
0.357307
0.343382
0.319918
0.284801
-0.0363265
-0.0147025
0.00765245
0.0307983
0.0547792
0.079619
0.105315
0.13183
0.159085
0.186949
0.215227
0.243651
0.271862
0.299403
0.325709
0.350098
0.371776
0.38985
0.403352
0.411264
0.412606
0.406746
0.393202
0.368526
0.330366
-0.0407592
-0.0180827
0.00539461
0.0297636
0.0551011
0.0814651
0.108889
0.137371
0.166871
0.197293
0.228473
0.260166
0.292026
0.32359
0.354259
0.383286
0.409767
0.432649
0.450747
0.462772
0.467431
0.463785
0.451057
0.425205
0.383557
-0.0446321
-0.0209886
0.00352527
0.0290347
0.0556532
0.083478
0.112584
0.143016
0.17478
0.207827
0.242041
0.277218
0.313044
0.349068
0.384679
0.419075
0.451249
0.479973
0.503814
0.521147
0.530266
0.529805
0.518547
0.491627
0.44593
-0.0478044
-0.0233087
0.00212579
0.0286614
0.0564518
0.0856382
0.116344
0.148667
0.182672
0.218371
0.255714
0.29456
0.334652
0.375581
0.416751
0.457335
0.496235
0.532054
0.563078
0.587276
0.602409
0.606516
0.597717
0.569979
0.519527
-0.0501528
-0.0249519
0.00125438
0.0286673
0.0574834
0.0878917
0.12007
0.154178
0.190349
0.228674
0.269187
0.311838
0.356458
0.402721
0.45009
0.497756
0.54457
0.588985
0.628995
0.662095
0.685369
0.696035
0.691225
0.663186
0.607095
-0.051584
-0.0258593
0.000934558
0.0290386
0.0586936
0.0901394
0.123613
0.159342
0.197541
0.238395
0.282046
0.328562
0.377907
0.429886
0.484082
0.539773
0.595833
0.650619
0.701856
0.746518
0.780858
0.800986
0.802569
0.775255
0.71246
-0.0520484
-0.0260169
0.0011437
0.0297133
0.059977
0.0922264
0.12676
0.163881
0.203893
0.247091
0.293747
0.344083
0.39824
0.456218
0.517803
0.582462
0.649204
0.716406
0.781615
0.841292
0.890726
0.924582
0.936397
0.91182
0.841167
-0.0515511
-0.0254658
0.00180336
0.0305726
0.0611694
0.0939357
0.129232
0.16744
0.208959
0.254207
0.303606
0.357568
0.416459
0.480552
0.549937
0.62441
0.703287
0.78517
0.867622
0.946729
1.01678
1.07066
1.0989
1.08099
1.00163
-0.0501619
-0.0243103
0.00277324
0.0314366
0.0620448
0.0949866
0.130682
0.169587
0.212203
0.259075
0.310794
0.36799
0.431307
0.501365
0.578688
0.663571
0.755889
0.854784
0.958212
1.06224
1.16037
1.24354
1.2983
1.29474
1.20733
-0.0480193
-0.0227202
0.00385037
0.0320649
0.0623186
0.0950396
0.130699
0.169825
0.213011
0.260931
0.314352
0.374139
0.441257
0.51675
0.6017
0.697114
0.803743
0.921734
1.05006
1.18553
1.32154
1.44746
1.54509
1.57101
1.48124
-0.0453288
-0.0209276
0.00477375
0.0321628
0.0616549
0.0937061
0.128828
0.167603
0.210708
0.258933
0.313211
0.374643
0.444532
0.524401
0.615999
0.721258
0.84217
0.980495
1.13716
1.31104
1.49708
1.68468
1.8515
1.93683
1.8647
-0.0423511
-0.0192116
0.00524355
0.0314052
0.0596958
0.0905843
0.124604
0.162375
0.20463
0.252248
0.306299
0.368093
0.439249
0.521772
0.618133
0.731349
0.865005
1.02315
1.20991
1.42827
1.67794
1.95232
2.22901
2.43088
2.43192
-0.039387
-0.0178628
0.00497723
0.0295144
0.0561631
0.0853877
0.117722
0.153795
0.194362
0.240349
0.292908
0.353495
0.423973
0.506756
0.60499
0.722806
0.865602
1.04034
1.2557
1.52174
1.84815
2.23976
2.6837
3.10336
3.31483
-0.0367551
-0.0171797
0.00369525
0.0262275
0.0508074
0.0778746
0.107939
0.141605
0.179608
0.222863
0.272527
0.330094
0.397531
0.477477
0.573531
0.690697
0.83603
1.01955
1.25555
1.56432
1.97282
2.50869
3.1901
4.01477
4.80842
-0.0347154
-0.0176289
0.00071866
0.0206426
0.0424876
0.0666418
0.0935559
0.123766
0.157927
0.196855
0.241592
0.293497
0.354385
0.426737
0.51404
0.62134
0.756158
0.930035
1.16135
1.48063
1.93681
2.59637
3.5721
5.1944
7.67839
-0.03337
-0.0194704
-0.00437242
0.0121761
0.0304493
0.0507545
0.0734453
0.0989397
0.127743
0.160481
0.197943
0.241152
0.29146
0.35071
0.421485
0.507561
0.614716
0.752322
0.936909
1.20043
1.60436
2.26056
3.47181
6.35801
12.4032
)
;

boundaryField
{
    movingWall
    {
        type            zeroGradient;
    }
    fixedWalls
    {
        type            zeroGradient;
    }
    frontAndBack
    {
        type            empty;
    }
    procBoundary1to0
    {
        type            processor;
        value           nonuniform List<scalar> 
50
(
0.030594
0.030935
0.0311744
0.0313333
0.0314349
0.0314728
0.0314381
0.0313222
0.0311151
0.0308049
0.0303779
0.0298188
0.0291103
0.0282335
0.0271675
0.0258899
0.0243767
0.0226028
0.0205423
0.0181692
0.0154585
0.0123866
0.00893309
0.00508226
0.000824732
-0.00384042
-0.00890341
-0.0143414
-0.020116
-0.0261713
-0.0324318
-0.0388011
-0.0451619
-0.0513765
-0.0572903
-0.0627354
-0.0675385
-0.0715293
-0.0745526
-0.0764808
-0.0772277
-0.0767624
-0.0751195
-0.0724063
-0.0688014
-0.064548
-0.0599574
-0.0553698
-0.0508396
-0.0463109
)
;
    }
}


// ************************************************************************* //
