/*--------------------------------*- C++ -*----------------------------------*\
| =========                 |                                                 |
| \\      /  F ield         | OpenFOAM: The Open Source CFD Toolbox           |
|  \\    /   O peration     | Version:  v2012                                 |
|   \\  /    A nd           | Website:  www.openfoam.com                      |
|    \\/     M anipulation  |                                                 |
\*---------------------------------------------------------------------------*/
FoamFile
{
    version     2.0;
    format      ascii;
    class       surfaceScalarField;
    location    "0.15";
    object      phi;
}
// * * * * * * * * * * * * * * * * * * * * * * * * * * * * * * * * * * * * * //

dimensions      [0 3 -1 0 0 0 0];
oriented        oriented;


internalField   nonuniform List<scalar> 
2425
(
-1.40262e-07
-5.46469e-10
-1.38489e-07
-1.77267e-09
-1.35509e-07
-2.98053e-09
-1.31356e-07
-4.1528e-09
-1.26084e-07
-5.27177e-09
-1.19765e-07
-6.31941e-09
-1.12487e-07
-7.27748e-09
-1.04359e-07
-8.12769e-09
-9.55075e-08
-8.85199e-09
-8.60748e-08
-9.43272e-09
-7.62219e-08
-9.85293e-09
-6.61252e-08
-1.00967e-08
-5.59757e-08
-1.01495e-08
-4.59771e-08
-9.9986e-09
-3.63436e-08
-9.63348e-09
-2.7297e-08
-9.04656e-09
-1.9063e-08
-8.23404e-09
-1.18656e-08
-7.19738e-09
-5.91968e-09
-5.94589e-09
-1.41775e-09
-4.50193e-09
1.49374e-09
-2.91149e-09
2.75831e-09
-1.26458e-09
2.49182e-09
2.66471e-10
1.17247e-09
1.31936e-09
1.17248e-09
-3.95644e-07
-2.0762e-09
-3.90778e-07
-6.6387e-09
-3.82629e-07
-1.11294e-08
-3.71298e-07
-1.54837e-08
-3.56934e-07
-1.96356e-08
-3.39735e-07
-2.35184e-08
-3.19948e-07
-2.7065e-08
-2.97867e-07
-3.02085e-08
-2.73836e-07
-3.28834e-08
-2.48242e-07
-3.5026e-08
-2.21519e-07
-3.65762e-08
-1.94138e-07
-3.74783e-08
-1.66604e-07
-3.76827e-08
-1.39455e-07
-3.71478e-08
-1.13247e-07
-3.58421e-08
-8.85461e-08
-3.37471e-08
-6.59188e-08
-3.08614e-08
-4.59091e-08
-2.7207e-08
-2.90158e-08
-2.28393e-08
-1.56535e-08
-1.78642e-08
-6.09629e-09
-1.24687e-08
-3.87202e-10
-6.97366e-09
1.79869e-09
-1.91942e-09
1.33123e-09
1.78681e-09
2.50372e-09
-6.30576e-07
-4.4861e-09
-6.22996e-07
-1.42188e-08
-6.10331e-07
-2.37939e-08
-5.92741e-07
-3.30736e-08
-5.70459e-07
-4.19177e-08
-5.43793e-07
-5.01849e-08
-5.13124e-07
-5.77334e-08
-4.7891e-07
-6.4423e-08
-4.41677e-07
-7.01164e-08
-4.02021e-07
-7.46819e-08
-3.60602e-07
-7.79954e-08
-3.18136e-07
-7.9944e-08
-2.75389e-07
-8.0429e-08
-2.33167e-07
-7.93701e-08
-1.92298e-07
-7.67109e-08
-1.53621e-07
-7.24249e-08
-1.17957e-07
-6.6525e-08
-8.60879e-08
-5.90762e-08
-5.87119e-08
-5.02153e-08
-3.63944e-08
-4.01817e-08
-1.94967e-08
-2.93664e-08
-8.07943e-09
-1.83909e-08
-1.78187e-09
-8.21701e-09
3.28006e-10
-3.23093e-10
2.83172e-09
-8.48808e-07
-7.67831e-09
-8.38835e-07
-2.41921e-08
-8.22195e-07
-4.0434e-08
-7.99097e-07
-5.61711e-08
-7.69848e-07
-7.11669e-08
-7.3485e-07
-8.51834e-08
-6.946e-07
-9.79833e-08
-6.49691e-07
-1.09332e-07
-6.00806e-07
-1.19001e-07
-5.48715e-07
-1.26773e-07
-4.94267e-07
-1.32444e-07
-4.38381e-07
-1.3583e-07
-3.82037e-07
-1.36773e-07
-3.26259e-07
-1.35149e-07
-2.72095e-07
-1.30875e-07
-2.20598e-07
-1.23921e-07
-1.72796e-07
-1.14327e-07
-1.29654e-07
-1.02218e-07
-9.20317e-08
-8.78382e-08
-6.06244e-08
-7.15889e-08
-3.58967e-08
-5.40941e-08
-1.7996e-08
-3.62916e-08
-6.66079e-09
-1.95522e-08
-1.12734e-09
-5.85656e-09
1.70437e-09
-1.05341e-06
-1.15585e-08
-1.04132e-06
-3.62848e-08
-1.02115e-06
-6.06009e-08
-9.9316e-07
-8.41597e-08
-9.57716e-07
-1.0661e-07
-9.15299e-07
-1.276e-07
-8.66505e-07
-1.46778e-07
-8.1204e-07
-1.63797e-07
-7.52717e-07
-1.78324e-07
-6.89451e-07
-1.90039e-07
-6.2325e-07
-1.98645e-07
-5.55202e-07
-2.03877e-07
-4.86463e-07
-2.05512e-07
-4.18237e-07
-2.03375e-07
-3.51755e-07
-1.97357e-07
-2.88248e-07
-1.87428e-07
-2.28914e-07
-1.73661e-07
-1.74879e-07
-1.56253e-07
-1.27148e-07
-1.35569e-07
-8.65559e-08
-1.12181e-07
-5.37002e-08
-8.69498e-08
-2.88805e-08
-6.11113e-08
-1.20362e-08
-3.63965e-08
-2.70373e-09
-1.51891e-08
-9.99369e-10
-1.24702e-06
-1.6034e-08
-1.23304e-06
-5.02615e-08
-1.20972e-06
-8.39208e-08
-1.17734e-06
-1.16536e-07
-1.13633e-06
-1.47624e-07
-1.08722e-06
-1.76705e-07
-1.0307e-06
-2.03297e-07
-9.67572e-07
-2.2693e-07
-8.9875e-07
-2.47147e-07
-8.25273e-07
-2.63516e-07
-7.48281e-07
-2.75637e-07
-6.69004e-07
-2.83154e-07
-5.88746e-07
-2.8577e-07
-5.08867e-07
-2.83255e-07
-4.30752e-07
-2.75472e-07
-3.55788e-07
-2.62391e-07
-2.85328e-07
-2.44121e-07
-2.20648e-07
-2.20934e-07
-1.62904e-07
-1.93312e-07
-1.13084e-07
-1.62002e-07
-7.19557e-08
-1.28078e-07
-4.00225e-08
-9.30445e-08
-1.74909e-08
-5.89281e-08
-4.26506e-09
-2.84149e-08
-5.26443e-09
-1.43189e-06
-2.10117e-08
-1.41623e-06
-6.59169e-08
-1.39007e-06
-1.10081e-07
-1.35372e-06
-1.52885e-07
-1.30764e-06
-1.93706e-07
-1.25243e-06
-2.31917e-07
-1.18883e-06
-2.66898e-07
-1.11772e-06
-2.98039e-07
-1.04012e-06
-3.24752e-07
-9.57152e-07
-3.46479e-07
-8.70082e-07
-3.62707e-07
-7.80256e-07
-3.7298e-07
-6.89108e-07
-3.76918e-07
-5.9813e-07
-3.74233e-07
-5.0885e-07
-3.64752e-07
-4.228e-07
-3.48442e-07
-3.41478e-07
-3.25442e-07
-2.66315e-07
-2.96096e-07
-1.98629e-07
-2.60999e-07
-1.39581e-07
-2.2105e-07
-9.01406e-08
-1.77518e-07
-5.10535e-08
-1.32132e-07
-2.28283e-08
-8.71533e-08
-5.75784e-09
-4.54854e-08
-1.10223e-08
-1.60994e-06
-2.63964e-08
-1.59278e-06
-8.30678e-08
-1.56405e-06
-1.38815e-07
-1.52407e-06
-1.92867e-07
-1.47333e-06
-2.44447e-07
-1.41247e-06
-2.92773e-07
-1.3423e-06
-3.37074e-07
-1.26374e-06
-3.76592e-07
-1.1779e-06
-4.10593e-07
-1.08599e-06
-4.38386e-07
-9.89369e-07
-4.59333e-07
-8.89481e-07
-4.72868e-07
-7.87879e-07
-4.7852e-07
-6.8618e-07
-4.75932e-07
-5.86043e-07
-4.64888e-07
-4.89141e-07
-4.45344e-07
-3.97123e-07
-4.17461e-07
-3.11578e-07
-3.81641e-07
-2.34e-07
-3.38577e-07
-1.65749e-07
-2.89301e-07
-1.08018e-07
-2.35249e-07
-6.1819e-08
-1.78331e-07
-2.79784e-08
-1.20994e-07
-7.1698e-09
-6.62939e-08
-1.81921e-08
-1.78274e-06
-3.20882e-08
-1.76426e-06
-1.01546e-07
-1.73319e-06
-1.69891e-07
-1.68986e-06
-2.36192e-07
-1.6348e-06
-2.99508e-07
-1.56868e-06
-3.58897e-07
-1.49233e-06
-4.13424e-07
-1.40675e-06
-4.62171e-07
-1.31309e-06
-5.04254e-07
-1.21264e-06
-5.38833e-07
-1.10684e-06
-5.65136e-07
-9.97229e-07
-5.82476e-07
-8.8547e-07
-5.90278e-07
-7.73296e-07
-5.88107e-07
-6.62493e-07
-5.7569e-07
-5.54876e-07
-5.52961e-07
-4.52249e-07
-5.20087e-07
-3.56375e-07
-4.77515e-07
-2.68937e-07
-4.26015e-07
-1.91509e-07
-3.66729e-07
-1.2553e-07
-3.01228e-07
-7.22909e-08
-2.3157e-07
-3.29385e-08
-1.60346e-07
-8.50818e-09
-9.07242e-08
-2.67002e-08
-1.9516e-06
-3.7981e-08
-1.93196e-06
-1.21189e-07
-1.89875e-06
-2.03097e-07
-1.85234e-06
-2.82605e-07
-1.79324e-06
-3.58601e-07
-1.72217e-06
-4.29974e-07
-1.63997e-06
-4.95618e-07
-1.5477e-06
-5.54447e-07
-1.44654e-06
-6.05412e-07
-1.33786e-06
-6.47516e-07
-1.22315e-06
-6.7984e-07
-1.10406e-06
-7.01564e-07
-9.82344e-07
-7.11997e-07
-8.59843e-07
-7.10607e-07
-7.38478e-07
-6.97055e-07
-6.20209e-07
-6.71231e-07
-5.07003e-07
-6.33293e-07
-4.00807e-07
-5.83712e-07
-3.0351e-07
-5.23312e-07
-2.16917e-07
-4.53322e-07
-1.42725e-07
-3.7542e-07
-8.25119e-08
-2.91783e-07
-3.77413e-08
-2.05117e-07
-9.78849e-09
-1.18677e-07
-3.64887e-08
-2.11754e-06
-4.39609e-08
-2.09689e-06
-1.4184e-07
-2.06175e-06
-2.38235e-07
-2.01248e-06
-3.31873e-07
-1.94962e-06
-4.21468e-07
-1.87386e-06
-5.0573e-07
-1.7861e-06
-5.83376e-07
-1.68741e-06
-6.53142e-07
-1.57902e-06
-7.13803e-07
-1.46234e-06
-7.64196e-07
-1.33894e-06
-8.03239e-07
-1.21054e-06
-8.29965e-07
-1.07898e-06
-8.43551e-07
-9.46237e-07
-8.43353e-07
-8.1435e-07
-8.28942e-07
-6.85434e-07
-8.00147e-07
-5.6163e-07
-7.57097e-07
-4.45079e-07
-7.00263e-07
-3.3789e-07
-6.30501e-07
-2.42113e-07
-5.49099e-07
-1.59714e-07
-4.57819e-07
-9.25632e-08
-3.58934e-07
-4.24362e-08
-2.55244e-07
-1.10292e-08
-1.50084e-07
-4.7518e-08
-2.28133e-06
-4.99045e-08
-2.25983e-06
-1.63335e-07
-2.22296e-06
-2.75107e-07
-2.17106e-06
-3.83771e-07
-2.10467e-06
-4.87863e-07
-2.02449e-06
-5.85909e-07
-1.93142e-06
-6.7644e-07
-1.82656e-06
-7.58007e-07
-1.71116e-06
-8.29199e-07
-1.58669e-06
-8.88671e-07
-1.45476e-06
-9.35166e-07
-1.31717e-06
-9.67554e-07
-1.17586e-06
-9.84859e-07
-1.03291e-06
-9.86304e-07
-8.90501e-07
-9.71352e-07
-7.50901e-07
-9.39747e-07
-6.16437e-07
-8.91562e-07
-4.89456e-07
-8.27243e-07
-3.72303e-07
-7.47654e-07
-2.67282e-07
-6.5412e-07
-1.7664e-07
-5.48461e-07
-1.02545e-07
-4.33029e-07
-4.70798e-08
-3.10709e-07
-1.22496e-08
-1.84914e-07
-5.97675e-08
-2.44347e-06
-5.56785e-08
-2.4213e-06
-1.85502e-07
-2.3829e-06
-3.13508e-07
-2.3286e-06
-4.38069e-07
-2.25893e-06
-5.57539e-07
-2.17458e-06
-6.70255e-07
-2.07647e-06
-7.74556e-07
-1.96567e-06
-8.68799e-07
-1.8435e-06
-9.51378e-07
-1.71141e-06
-1.02075e-06
-1.57111e-06
-1.07547e-06
-1.42444e-06
-1.11422e-06
-1.27344e-06
-1.13586e-06
-1.1203e-06
-1.13945e-06
-9.67331e-07
-1.12432e-06
-8.1698e-07
-1.0901e-06
-6.71759e-07
-1.03678e-06
-5.34238e-07
-9.64764e-07
-4.07005e-07
-8.74888e-07
-2.92635e-07
-7.6849e-07
-1.93664e-07
-6.47432e-07
-1.12565e-07
-5.14128e-07
-5.17305e-08
-3.71543e-07
-1.34682e-08
-2.23176e-07
-7.32357e-08
-2.60423e-06
-6.1139e-08
-2.58158e-06
-2.08159e-07
-2.54186e-06
-3.53221e-07
-2.48541e-06
-4.94522e-07
-2.41272e-06
-6.3023e-07
-2.32448e-06
-7.58493e-07
-2.22159e-06
-8.77452e-07
-2.10513e-06
-9.85261e-07
-1.9764e-06
-1.08011e-06
-1.83691e-06
-1.16023e-06
-1.68839e-06
-1.22399e-06
-1.53276e-06
-1.26986e-06
-1.37212e-06
-1.29649e-06
-1.20879e-06
-1.30278e-06
-1.04523e-06
-1.28788e-06
-8.8404e-07
-1.25129e-06
-7.27941e-07
-1.19288e-06
-5.79733e-07
-1.11297e-06
-4.42262e-07
-1.01236e-06
-3.18387e-07
-8.92364e-07
-2.10949e-07
-7.5487e-07
-1.22732e-07
-6.02345e-07
-5.64458e-08
-4.37829e-07
-1.47026e-08
-2.6492e-07
-8.79383e-08
-2.76362e-06
-6.61315e-08
-2.74067e-06
-2.31105e-07
-2.69988e-06
-3.94006e-07
-2.64155e-06
-5.52857e-07
-2.56614e-06
-7.05642e-07
-2.47431e-06
-8.50317e-07
-2.36694e-06
-9.84821e-07
-2.24511e-06
-1.1071e-06
-2.1101e-06
-1.21511e-06
-1.96346e-06
-1.30688e-06
-1.80691e-06
-1.38054e-06
-1.64244e-06
-1.43433e-06
-1.47225e-06
-1.46668e-06
-1.29876e-06
-1.47628e-06
-1.12456e-06
-1.46208e-06
-9.52432e-07
-1.42341e-06
-7.85314e-07
-1.36e-06
-6.26242e-07
-1.27204e-06
-4.78337e-07
-1.16026e-06
-3.44756e-07
-1.02594e-06
-2.28656e-07
-8.7097e-07
-1.33152e-07
-6.97849e-07
-6.12809e-08
-5.09701e-07
-1.59695e-08
-3.10231e-07
-1.03908e-07
-2.92135e-06
-7.0492e-08
-2.89833e-06
-2.54122e-07
-2.85674e-06
-4.35598e-07
-2.79683e-06
-6.1277e-07
-2.71903e-06
-7.83441e-07
-2.62397e-06
-9.45374e-07
-2.51249e-06
-1.0963e-06
-2.38563e-06
-1.23395e-06
-2.24468e-06
-1.35606e-06
-2.09116e-06
-1.46041e-06
-1.92683e-06
-1.54487e-06
-1.75372e-06
-1.60744e-06
-1.5741e-06
-1.6463e-06
-1.39049e-06
-1.65989e-06
-1.20562e-06
-1.64694e-06
-1.02248e-06
-1.60656e-06
-8.44188e-07
-1.53829e-06
-6.74055e-07
-1.44218e-06
-5.15484e-07
-1.31883e-06
-3.71949e-07
-1.16948e-06
-2.46943e-07
-9.95976e-07
-1.43928e-07
-8.00864e-07
-6.62886e-08
-5.87341e-07
-1.72844e-08
-3.59235e-07
-1.21192e-07
-3.0769e-06
-7.40486e-08
-3.05404e-06
-2.76974e-07
-3.01194e-06
-4.777e-07
-2.9508e-06
-6.73912e-07
-2.871e-06
-8.63237e-07
-2.77313e-06
-1.04325e-06
-2.65797e-06
-1.21147e-06
-2.52651e-06
-1.36541e-06
-2.38002e-06
-1.50255e-06
-2.21999e-06
-1.62043e-06
-2.04821e-06
-1.71665e-06
-1.86671e-06
-1.78894e-06
-1.67783e-06
-1.83518e-06
-1.4842e-06
-1.85353e-06
-1.28869e-06
-1.84245e-06
-1.09445e-06
-1.8008e-06
-9.04842e-07
-1.72789e-06
-7.23436e-07
-1.62358e-06
-5.53941e-07
-1.48833e-06
-4.00164e-07
-1.32326e-06
-2.65958e-07
-1.13018e-06
-1.55158e-07
-9.11665e-07
-7.15191e-08
-6.70979e-07
-1.8662e-08
-4.12092e-07
-1.39854e-07
-3.2294e-06
-7.66237e-08
-3.20697e-06
-2.99403e-07
-3.1647e-06
-5.19978e-07
-3.10272e-06
-7.35884e-07
-3.02138e-06
-9.44577e-07
-2.92119e-06
-1.14344e-06
-2.80285e-06
-1.32981e-06
-2.66732e-06
-1.50093e-06
-2.5158e-06
-1.65408e-06
-2.34974e-06
-1.78649e-06
-2.17091e-06
-1.89548e-06
-1.98137e-06
-1.97847e-06
-1.78351e-06
-2.03304e-06
-1.58002e-06
-2.05702e-06
-1.37393e-06
-2.04854e-06
-1.16856e-06
-2.00617e-06
-9.67515e-07
-1.92894e-06
-7.74626e-07
-1.81647e-06
-5.93927e-07
-1.66903e-06
-4.29587e-07
-1.4876e-06
-2.85843e-07
-1.27393e-06
-1.66934e-07
-1.03057e-06
-7.70203e-08
-7.60893e-07
-2.01164e-08
-4.68996e-07
-1.5997e-07
-3.37771e-06
-7.80375e-08
-3.35598e-06
-3.21128e-07
-3.3139e-06
-5.62062e-07
-3.25155e-06
-7.98231e-07
-3.16919e-06
-1.02694e-06
-3.06725e-06
-1.24538e-06
-2.94637e-06
-1.45069e-06
-2.8074e-06
-1.6399e-06
-2.65146e-06
-1.81001e-06
-2.47997e-06
-1.95798e-06
-2.29464e-06
-2.08081e-06
-2.09753e-06
-2.17558e-06
-1.89105e-06
-2.23952e-06
-1.67798e-06
-2.27009e-06
-1.46146e-06
-2.26506e-06
-1.24499e-06
-2.22264e-06
-1.0324e-06
-2.14153e-06
-8.27829e-07
-2.02104e-06
-6.35641e-07
-1.86122e-06
-4.6039e-07
-1.66285e-06
-3.06732e-07
-1.42758e-06
-1.79346e-07
-1.15796e-06
-8.28386e-08
-8.574e-07
-2.16612e-08
-5.30173e-07
-1.81632e-07
-3.5203e-06
-7.81132e-08
-3.49958e-06
-3.41854e-07
-3.4581e-06
-6.03539e-07
-3.3959e-06
-8.60435e-07
-3.31313e-06
-1.1097e-06
-3.21013e-06
-1.34838e-06
-3.08743e-06
-1.57339e-06
-2.94579e-06
-1.78155e-06
-2.78621e-06
-1.96959e-06
-2.61003e-06
-2.13416e-06
-2.4189e-06
-2.27195e-06
-2.21483e-06
-2.37965e-06
-2.00024e-06
-2.45411e-06
-1.77797e-06
-2.49236e-06
-1.55127e-06
-2.49176e-06
-1.3238e-06
-2.4501e-06
-1.09964e-06
-2.36568e-06
-8.83219e-07
-2.23747e-06
-6.7926e-07
-2.06518e-06
-4.92733e-07
-1.84937e-06
-3.28753e-07
-1.59156e-06
-1.9248e-07
-1.29423e-06
-8.90196e-08
-9.60861e-07
-2.331e-08
-5.95883e-07
-2.04942e-07
-3.65531e-06
-7.66817e-08
-3.6359e-06
-3.61266e-07
-3.59548e-06
-6.43954e-07
-3.534e-06
-9.21912e-07
-3.45153e-06
-1.19218e-06
-3.34827e-06
-1.45164e-06
-3.22463e-06
-1.69703e-06
-3.08123e-06
-1.92495e-06
-2.91896e-06
-2.13186e-06
-2.73901e-06
-2.31411e-06
-2.54294e-06
-2.46802e-06
-2.33271e-06
-2.58989e-06
-2.1107e-06
-2.67612e-06
-1.87977e-06
-2.72328e-06
-1.64327e-06
-2.72827e-06
-1.40502e-06
-2.68835e-06
-1.16933e-06
-2.60138e-06
-9.40931e-07
-2.46587e-06
-7.24938e-07
-2.28117e-06
-5.26766e-07
-2.04755e-06
-3.52029e-07
-1.7663e-06
-2.06423e-07
-1.43984e-06
-9.56091e-08
-1.07168e-06
-2.50766e-08
-6.66416e-07
-2.30018e-07
-3.78044e-06
-7.35897e-08
-3.76267e-06
-3.79037e-07
-3.72381e-06
-6.82811e-07
-3.66372e-06
-9.82006e-07
-3.58234e-06
-1.27356e-06
-3.47974e-06
-1.55423e-06
-3.35619e-06
-1.82059e-06
-3.21213e-06
-2.06901e-06
-3.04828e-06
-2.2957e-06
-2.86569e-06
-2.4967e-06
-2.66578e-06
-2.66793e-06
-2.45039e-06
-2.80528e-06
-2.22184e-06
-2.90466e-06
-1.98299e-06
-2.96214e-06
-1.73724e-06
-2.97402e-06
-1.48856e-06
-2.93703e-06
-1.24148e-06
-2.84845e-06
-1.00106e-06
-2.70629e-06
-7.72809e-07
-2.50942e-06
-5.62628e-07
-2.25773e-06
-3.7668e-07
-1.95225e-06
-2.21261e-07
-1.59526e-06
-1.02654e-07
-1.19028e-06
-2.69751e-08
-7.42094e-07
-2.56993e-07
-3.893e-06
-6.87073e-08
-3.8772e-06
-3.94833e-07
-3.84044e-06
-7.19577e-07
-3.78245e-06
-1.03999e-06
-3.70307e-06
-1.35294e-06
-3.6022e-06
-1.6551e-06
-3.47992e-06
-1.94287e-06
-3.33648e-06
-2.21245e-06
-3.17241e-06
-2.45977e-06
-2.98855e-06
-2.68056e-06
-2.78612e-06
-2.87036e-06
-2.56682e-06
-3.02458e-06
-2.33286e-06
-3.13862e-06
-2.08705e-06
-3.20795e-06
-1.83281e-06
-3.22826e-06
-1.57423e-06
-3.19561e-06
-1.31605e-06
-3.10663e-06
-1.06366e-06
-2.95869e-06
-8.22982e-07
-2.75009e-06
-6.00449e-07
-2.48026e-06
-4.02827e-07
-2.14987e-06
-2.37083e-07
-1.761e-06
-1.10204e-07
-1.31716e-06
-2.9021e-08
-8.23277e-07
-2.86014e-07
-3.9898e-06
-6.19376e-08
-3.97631e-06
-4.08318e-07
-3.94221e-06
-7.53679e-07
-3.88713e-06
-1.09507e-06
-3.81076e-06
-1.42932e-06
-3.71282e-06
-1.75303e-06
-3.59318e-06
-2.06251e-06
-3.45187e-06
-2.35376e-06
-3.28917e-06
-2.62248e-06
-3.10565e-06
-2.86407e-06
-2.90233e-06
-3.07368e-06
-2.68067e-06
-3.24624e-06
-2.44272e-06
-3.37657e-06
-2.19118e-06
-3.45949e-06
-1.92946e-06
-3.48998e-06
-1.66172e-06
-3.46334e-06
-1.39292e-06
-3.37544e-06
-1.12873e-06
-3.22288e-06
-8.75542e-07
-3.00328e-06
-6.4035e-07
-2.71545e-06
-4.30591e-07
-2.35963e-06
-2.53981e-07
-1.93761e-06
-1.18312e-07
-1.45283e-06
-3.12313e-08
-9.10357e-07
-3.17246e-07
-4.06718e-06
-5.32277e-08
-4.05633e-06
-4.19167e-07
-4.02549e-06
-7.84519e-07
-3.97419e-06
-1.14637e-06
-3.90194e-06
-1.50157e-06
-3.80829e-06
-1.84669e-06
-3.69285e-06
-2.17794e-06
-3.5554e-06
-2.49121e-06
-3.39591e-06
-2.78197e-06
-3.21468e-06
-3.04531e-06
-3.01238e-06
-3.27598e-06
-2.79024e-06
-3.46839e-06
-2.55005e-06
-3.61676e-06
-2.29435e-06
-3.71519e-06
-2.02647e-06
-3.75786e-06
-1.7506e-06
-3.73921e-06
-1.47185e-06
-3.65419e-06
-1.19621e-06
-3.49851e-06
-9.3055e-07
-3.26894e-06
-6.82452e-07
-2.96355e-06
-4.60101e-07
-2.58198e-06
-2.72061e-07
-2.12565e-06
-1.27038e-07
-1.59785e-06
-3.36251e-08
-1.00377e-06
-3.50871e-07
-4.12095e-06
-4.25794e-08
-4.11305e-06
-4.27071e-07
-4.08609e-06
-8.11475e-07
-4.03949e-06
-1.19297e-06
-3.9726e-06
-1.56846e-06
-3.88474e-06
-1.93455e-06
-3.77527e-06
-2.28742e-06
-3.64364e-06
-2.62284e-06
-3.48951e-06
-2.9361e-06
-3.3128e-06
-3.22202e-06
-3.11383e-06
-3.47494e-06
-2.89346e-06
-3.68876e-06
-2.65318e-06
-3.85704e-06
-2.39527e-06
-3.9731e-06
-2.1229e-06
-4.03022e-06
-1.84025e-06
-4.02187e-06
-1.55252e-06
-3.94192e-06
-1.26601e-06
-3.78502e-06
-9.88043e-07
-3.54691e-06
-7.26871e-07
-3.22472e-06
-4.91494e-07
-2.81736e-06
-2.91436e-07
-2.32571e-06
-1.36453e-07
-1.75284e-06
-3.62251e-08
-1.104e-06
-3.87096e-07
-4.14637e-06
-3.00616e-08
-4.14169e-06
-4.31751e-07
-4.11925e-06
-8.33917e-07
-4.07834e-06
-1.23388e-06
-4.01813e-06
-1.62867e-06
-3.93771e-06
-2.01496e-06
-3.83616e-06
-2.38897e-06
-3.71258e-06
-2.74641e-06
-3.56625e-06
-3.08244e-06
-3.39666e-06
-3.39161e-06
-3.2037e-06
-3.6679e-06
-2.98779e-06
-3.90467e-06
-2.75001e-06
-4.09481e-06
-2.4923e-06
-4.23081e-06
-2.21756e-06
-4.30496e-06
-1.92986e-06
-4.30957e-06
-1.63447e-06
-4.23731e-06
-1.33792e-06
-4.08157e-06
-1.04803e-06
-3.83681e-06
-7.73723e-07
-3.49902e-06
-5.24926e-07
-3.06615e-06
-3.12241e-07
-2.53839e-06
-1.46636e-07
-1.91844e-06
-3.90581e-08
-1.21158e-06
-4.26154e-07
-4.13814e-06
-1.58213e-08
-4.13691e-06
-4.32971e-07
-4.11961e-06
-8.51218e-07
-4.08541e-06
-1.26809e-06
-4.03329e-06
-1.68079e-06
-3.96211e-06
-2.08614e-06
-3.87062e-06
-2.48045e-06
-3.75758e-06
-2.85945e-06
-3.6218e-06
-3.21822e-06
-3.46231e-06
-3.5511e-06
-3.27848e-06
-3.85173e-06
-3.07018e-06
-4.11297e-06
-2.838e-06
-4.327e-06
-2.5834e-06
-4.48542e-06
-2.30893e-06
-4.57943e-06
-2.01841e-06
-4.60009e-06
-1.71708e-06
-4.53864e-06
-1.41168e-06
-4.38697e-06
-1.11047e-06
-4.13802e-06
-8.23129e-07
-3.78637e-06
-5.60571e-07
-3.32871e-06
-3.34636e-07
-2.76433e-06
-1.57689e-07
-2.09539e-06
-4.21572e-08
-1.32711e-06
-4.68311e-07
-4.09034e-06
-9.43693e-11
-4.09276e-06
-4.30553e-07
-4.0812e-06
-8.62774e-07
-4.05474e-06
-1.29455e-06
-4.01219e-06
-1.72334e-06
-3.95215e-06
-2.14618e-06
-3.87307e-06
-2.55954e-06
-3.77327e-06
-2.95925e-06
-3.65112e-06
-3.34037e-06
-3.50509e-06
-3.69713e-06
-3.33395e-06
-4.02286e-06
-3.13696e-06
-4.30996e-06
-2.91404e-06
-4.54991e-06
-2.66607e-06
-4.73339e-06
-2.39509e-06
-4.85041e-06
-2.10455e-06
-4.89062e-06
-1.79953e-06
-4.84366e-06
-1.48689e-06
-4.69961e-06
-1.17531e-06
-4.44961e-06
-8.75215e-07
-4.08646e-06
-5.98638e-07
-3.60529e-06
-3.58814e-07
-3.00415e-06
-1.69731e-07
-2.28447e-06
-4.55637e-08
-1.45128e-06
-5.13875e-07
-3.9965e-06
1.67874e-08
-4.00267e-06
-4.24389e-07
-3.99742e-06
-8.6802e-07
-3.97974e-06
-1.31223e-06
-3.94827e-06
-1.75481e-06
-3.90138e-06
-2.19307e-06
-3.83717e-06
-2.62375e-06
-3.75356e-06
-3.04285e-06
-3.64841e-06
-3.44552e-06
-3.51959e-06
-3.82596e-06
-3.36519e-06
-4.17726e-06
-3.18372e-06
-4.49143e-06
-2.97436e-06
-4.75927e-06
-2.73722e-06
-4.97053e-06
-2.47365e-06
-5.11398e-06
-2.18658e-06
-5.1777e-06
-1.88076e-06
-5.14948e-06
-1.56302e-06
-5.01734e-06
-1.2424e-06
-4.77023e-06
-9.30112e-07
-4.39875e-06
-6.39373e-07
-3.89603e-06
-3.85013e-07
-3.25851e-06
-1.82919e-07
-2.48657e-06
-4.93301e-08
-1.58486e-06
-5.63205e-07
-3.84956e-06
3.439e-08
-3.85949e-06
-4.14453e-07
-3.86106e-06
-8.66454e-07
-3.85315e-06
-1.32014e-06
-3.83428e-06
-1.77368e-06
-3.80258e-06
-2.22478e-06
-3.75583e-06
-2.6705e-06
-3.69154e-06
-3.10714e-06
-3.60703e-06
-3.53004e-06
-3.49953e-06
-3.93346e-06
-3.36638e-06
-4.3104e-06
-3.20527e-06
-4.65254e-06
-3.01443e-06
-4.95011e-06
-2.79307e-06
-5.1919e-06
-2.54165e-06
-5.3654e-06
-2.26233e-06
-5.45701e-06
-1.95935e-06
-5.45246e-06
-1.63933e-06
-5.33736e-06
-1.31155e-06
-5.09801e-06
-9.87957e-07
-4.72233e-06
-6.83074e-07
-4.20091e-06
-4.13535e-07
-3.52805e-06
-1.97448e-07
-2.70265e-06
-5.35245e-08
-1.72879e-06
-6.1673e-07
-3.64187e-06
5.21796e-08
-3.65551e-06
-4.00817e-07
-3.6643e-06
-8.57663e-07
-3.6671e-06
-1.31734e-06
-3.66229e-06
-1.77849e-06
-3.64782e-06
-2.23926e-06
-3.62117e-06
-2.69716e-06
-3.57944e-06
-3.14887e-06
-3.51942e-06
-3.59006e-06
-3.43768e-06
-4.01519e-06
-3.33076e-06
-4.41732e-06
-3.19539e-06
-4.78792e-06
-3.02877e-06
-5.11672e-06
-2.82897e-06
-5.39169e-06
-2.59535e-06
-5.59902e-06
-2.32904e-06
-5.72332e-06
-2.03347e-06
-5.74803e-06
-1.71482e-06
-5.65601e-06
-1.38241e-06
-5.43042e-06
-1.04888e-06
-5.05586e-06
-7.30103e-07
-4.51969e-06
-4.44759e-07
-3.8134e-06
-2.13574e-07
-2.93384e-06
-5.82359e-08
-1.88413e-06
-6.74966e-07
-3.36533e-06
6.95296e-08
-3.38249e-06
-3.83657e-07
-3.3988e-06
-8.41347e-07
-3.41311e-06
-1.30303e-06
-3.42373e-06
-1.76787e-06
-3.42844e-06
-2.23455e-06
-3.42448e-06
-2.70111e-06
-3.40859e-06
-3.16476e-06
-3.37705e-06
-3.6216e-06
-3.32576e-06
-4.06648e-06
-3.25043e-06
-4.49266e-06
-3.14675e-06
-4.89159e-06
-3.01077e-06
-5.25271e-06
-2.83921e-06
-5.56325e-06
-2.63007e-06
-5.80817e-06
-2.38313e-06
-5.97026e-06
-2.10067e-06
-6.03049e-06
-1.78809e-06
-5.96859e-06
-1.45448e-06
-5.76403e-06
-1.11299e-06
-5.39735e-06
-7.80895e-07
-4.85178e-06
-4.79171e-07
-4.11512e-06
-2.31632e-07
-3.18138e-06
-6.35835e-08
-2.05218e-06
-7.38549e-07
-3.01134e-06
8.57374e-08
-3.03174e-06
-3.6326e-07
-3.05574e-06
-8.17347e-07
-3.08221e-06
-1.27656e-06
-3.10944e-06
-1.74063e-06
-3.13512e-06
-2.20887e-06
-3.15631e-06
-2.67992e-06
-3.16945e-06
-3.15162e-06
-3.17036e-06
-3.62069e-06
-3.15434e-06
-4.08251e-06
-3.11624e-06
-4.53076e-06
-3.05071e-06
-4.95712e-06
-2.95247e-06
-5.35095e-06
-2.81677e-06
-5.69895e-06
-2.63991e-06
-5.98502e-06
-2.42e-06
-6.19018e-06
-2.15771e-06
-6.29278e-06
-1.8572e-06
-6.2691e-06
-1.52694e-06
-6.09429e-06
-1.18033e-06
-5.74396e-06
-8.35972e-07
-5.19614e-06
-5.17395e-07
-4.4337e-06
-2.52066e-07
-3.4467e-06
-6.97278e-08
-2.23451e-06
-8.08277e-07
-2.57102e-06
1.00052e-07
-2.59426e-06
-3.40018e-07
-2.62594e-06
-7.85668e-07
-2.66499e-06
-1.2375e-06
-2.70976e-06
-1.69587e-06
-2.75792e-06
-2.16071e-06
-2.80643e-06
-2.63141e-06
-2.85155e-06
-3.1065e-06
-2.88874e-06
-3.5835e-06
-2.91275e-06
-4.05849e-06
-2.91767e-06
-4.52584e-06
-2.89707e-06
-4.97771e-06
-2.84433e-06
-5.40369e-06
-2.753e-06
-5.79028e-06
-2.61744e-06
-6.12058e-06
-2.43365e-06
-6.37398e-06
-2.20019e-06
-6.52624e-06
-1.91941e-06
-6.54988e-06
-1.59854e-06
-6.41516e-06
-1.2508e-06
-6.09171e-06
-8.95934e-07
-5.551e-06
-5.6023e-07
-4.7694e-06
-2.75468e-07
-3.73147e-06
-7.68899e-08
-2.43309e-06
-8.85167e-07
-2.03524e-06
1.11711e-07
-2.06084e-06
-3.14421e-07
-2.1e-06
-7.46502e-07
-2.1518e-06
-1.1857e-06
-2.21469e-06
-1.63298e-06
-2.28642e-06
-2.08898e-06
-2.364e-06
-2.55383e-06
-2.44359e-06
-3.02691e-06
-2.52049e-06
-3.50661e-06
-2.58902e-06
-3.98996e-06
-2.64262e-06
-4.47224e-06
-2.6739e-06
-4.94644e-06
-2.67483e-06
-5.40275e-06
-2.63721e-06
-5.8279e-06
-2.5532e-06
-6.20459e-06
-2.41623e-06
-6.51095e-06
-2.22217e-06
-6.72029e-06
-1.97079e-06
-6.80127e-06
-1.6673e-06
-6.71864e-06
-1.32402e-06
-6.435e-06
-9.6144e-07
-5.91358e-06
-6.08703e-07
-5.12214e-06
-3.02645e-07
-4.03752e-06
-8.53788e-08
-2.65036e-06
-9.70546e-07
-1.39488e-06
1.19996e-07
-1.42226e-06
-2.87041e-07
-1.46852e-06
-7.00245e-07
-1.5329e-06
-1.12132e-06
-1.61403e-06
-1.55184e-06
-1.70989e-06
-1.99313e-06
-1.81764e-06
-2.44608e-06
-1.93356e-06
-2.91099e-06
-2.05292e-06
-3.38725e-06
-2.16987e-06
-3.87301e-06
-2.27738e-06
-4.36472e-06
-2.36725e-06
-4.85657e-06
-2.43022e-06
-5.33978e-06
-2.45627e-06
-5.80186e-06
-2.43517e-06
-6.22569e-06
-2.3574e-06
-6.58871e-06
-2.21548e-06
-6.86222e-06
-2.00565e-06
-7.01109e-06
-1.73008e-06
-6.99421e-06
-1.39907e-06
-6.76601e-06
-1.03313e-06
-6.27951e-06
-6.64115e-07
-5.49116e-06
-3.34698e-07
-4.36694e-06
-9.56365e-08
-2.88942e-06
-1.06618e-06
-6.4101e-07
1.24291e-07
-6.69552e-07
-2.58499e-07
-7.22287e-07
-6.47509e-07
-7.98686e-07
-1.04492e-06
-8.97667e-07
-1.45286e-06
-1.0175e-06
-1.87329e-06
-1.1557e-06
-2.30789e-06
-1.30884e-06
-2.75785e-06
-1.47242e-06
-3.22366e-06
-1.64069e-06
-3.70474e-06
-1.80647e-06
-4.19895e-06
-1.96102e-06
-4.70201e-06
-2.09409e-06
-5.20672e-06
-2.19398e-06
-5.70197e-06
-2.24804e-06
-6.17162e-06
-2.24351e-06
-6.59325e-06
-2.16883e-06
-6.9369e-06
-2.01573e-06
-7.1642e-06
-1.78187e-06
-7.22807e-06
-1.47405e-06
-7.07382e-06
-1.11147e-06
-6.6421e-06
-7.28083e-07
-5.87454e-06
-3.73147e-07
-4.72188e-06
-1.0831e-07
-3.15426e-06
-1.17449e-06
2.34865e-07
1.24156e-07
2.05803e-07
-2.29437e-07
1.47418e-07
-5.89124e-07
5.99731e-08
-9.57479e-07
-5.58059e-08
-1.33708e-06
-1.98627e-07
-1.73047e-06
-3.66489e-07
-2.14002e-06
-5.56509e-07
-2.56783e-06
-7.64702e-07
-3.01547e-06
-9.8574e-07
-3.4837e-06
-1.21268e-06
-3.972e-06
-1.43673e-06
-4.47797e-06
-1.647e-06
-4.99644e-06
-1.83053e-06
-5.51845e-06
-1.97241e-06
-6.02975e-06
-2.05648e-06
-6.50917e-06
-2.06661e-06
-6.92677e-06
-1.98886e-06
-7.24195e-06
-1.8147e-06
-7.40223e-06
-1.54528e-06
-7.34324e-06
-1.19631e-06
-6.99107e-06
-8.02539e-07
-6.26831e-06
-4.20112e-07
-5.10431e-06
-1.24374e-07
-3.44999e-06
-1.29887e-06
1.24046e-06
1.19401e-07
1.21149e-06
-2.0047e-07
1.1485e-06
-5.26131e-07
1.05144e-06
-8.60425e-07
9.20634e-07
-1.20627e-06
7.56818e-07
-1.56665e-06
5.61338e-07
-1.94454e-06
3.36321e-07
-2.34281e-06
8.49322e-08
-2.76408e-06
-1.88323e-07
-3.21045e-06
-4.77234e-07
-3.68309e-06
-7.73483e-07
-4.18172e-06
-1.06625e-06
-4.70368e-06
-1.34186e-06
-5.24283e-06
-1.58371e-06
-5.7879e-06
-1.77248e-06
-6.3204e-06
-1.88718e-06
-6.81207e-06
-1.90719e-06
-7.22193e-06
-1.81587e-06
-7.49355e-06
-1.60589e-06
-7.55323e-06
-1.28619e-06
-7.31077e-06
-8.89581e-07
-6.66492e-06
-4.78551e-07
-5.51534e-06
-1.45344e-07
-3.7832e-06
-1.44421e-06
2.38237e-06
1.10159e-07
2.35405e-06
-1.72145e-07
2.28768e-06
-4.59767e-07
2.18294e-06
-7.55676e-07
2.03965e-06
-1.06298e-06
1.85793e-06
-1.38494e-06
1.63835e-06
-1.72496e-06
1.38206e-06
-2.08652e-06
1.09111e-06
-2.47313e-06
7.68766e-07
-2.8881e-06
4.1997e-07
-3.3343e-06
5.18507e-08
-3.8136e-06
-3.25654e-07
-4.32617e-06
-6.99154e-07
-4.86933e-06
-1.05125e-06
-5.43581e-06
-1.36026e-06
-6.01139e-06
-1.60062e-06
-6.57171e-06
-1.74447e-06
-7.07808e-06
-1.76516e-06
-7.47286e-06
-1.64342e-06
-7.67497e-06
-1.37669e-06
-7.5775e-06
-9.90962e-07
-7.05065e-06
-5.52545e-07
-5.95375e-06
-1.73641e-07
-4.16211e-06
-1.61785e-06
3.6657e-06
9.69359e-08
3.63846e-06
-1.44904e-07
3.57014e-06
-3.91447e-07
3.46009e-06
-6.45631e-07
3.30769e-06
-9.10577e-07
3.11238e-06
-1.18963e-06
2.87382e-06
-1.4864e-06
2.59206e-06
-1.80477e-06
2.26778e-06
-2.14885e-06
1.90264e-06
-2.52296e-06
1.49974e-06
-2.93139e-06
1.06425e-06
-3.37811e-06
6.0423e-07
-3.86615e-06
1.3151e-07
-4.39661e-06
-3.37194e-07
-4.9671e-06
-7.79337e-07
-5.56925e-06
-1.16599e-06
-6.18506e-06
-1.46237e-06
-6.78169e-06
-1.63056e-06
-7.30468e-06
-1.63568e-06
-7.66984e-06
-1.45734e-06
-7.75585e-06
-1.10668e-06
-7.4013e-06
-6.47488e-07
-6.41294e-06
-2.13229e-07
-4.59637e-06
-1.83108e-06
5.0936e-06
8.06422e-08
5.06776e-06
-1.1906e-07
4.99906e-06
-3.22743e-07
4.88658e-06
-5.33151e-07
4.72924e-06
-7.53237e-07
4.52583e-06
-9.86226e-07
4.27512e-06
-1.23569e-06
3.97595e-06
-1.5056e-06
3.62748e-06
-1.80038e-06
3.22946e-06
-2.12494e-06
2.78271e-06
-2.48464e-06
2.2897e-06
-2.88511e-06
1.75551e-06
-3.33195e-06
1.18891e-06
-3.83001e-06
6.03956e-07
-4.38215e-06
2.16963e-08
-4.98699e-06
-5.28045e-07
-5.63531e-06
-1.00554e-06
-6.3042e-06
-1.36187e-06
-6.94834e-06
-1.54378e-06
-7.48793e-06
-1.50556e-06
-7.79407e-06
-1.23148e-06
-7.67538e-06
-7.69682e-07
-6.87474e-06
-2.70627e-07
-5.09542e-06
-2.10171e-06
6.66691e-06
6.25691e-08
6.64265e-06
-9.47995e-08
6.57527e-06
-2.55365e-07
6.46365e-06
-4.21531e-07
6.30633e-06
-5.95911e-07
6.1015e-06
-7.81405e-07
5.84711e-06
-9.81296e-07
5.54086e-06
-1.19934e-06
5.18036e-06
-1.43988e-06
4.76336e-06
-1.70795e-06
4.2881e-06
-2.00938e-06
3.75381e-06
-2.35082e-06
3.1616e-06
-2.73974e-06
2.51568e-06
-3.18409e-06
1.82512e-06
-3.69159e-06
1.10631e-06
-4.26818e-06
3.85959e-07
-4.91497e-06
-2.95527e-07
-5.62272e-06
-8.81637e-07
-6.36223e-06
-1.30071e-06
-7.06886e-06
-1.4752e-06
-7.61957e-06
-1.34662e-06
-7.80396e-06
-9.23801e-07
-7.29756e-06
-3.56291e-07
-5.66293e-06
-2.458e-06
8.38368e-06
4.43093e-08
8.36111e-06
-7.2228e-08
8.29691e-06
-1.91167e-07
8.18984e-06
-3.14456e-07
8.03815e-06
-4.4423e-07
7.83964e-06
-5.82894e-07
7.59156e-06
-7.33216e-07
7.29067e-06
-8.98445e-07
6.93323e-06
-1.08244e-06
6.51513e-06
-1.28985e-06
6.03205e-06
-1.52629e-06
5.47981e-06
-1.79858e-06
4.855e-06
-2.11493e-06
4.15602e-06
-2.48512e-06
3.38481e-06
-2.92038e-06
2.54951e-06
-3.43287e-06
1.66841e-06
-4.03387e-06
7.75484e-07
-4.72979e-06
-7.31402e-08
-5.51361e-06
-7.93577e-07
-6.34843e-06
-1.27536e-06
-7.13779e-06
-1.40112e-06
-7.67821e-06
-1.10348e-06
-7.5952e-06
-4.84964e-07
-6.28145e-06
-2.94296e-06
1.02389e-05
2.75987e-08
1.02181e-05
-5.14623e-08
1.01591e-05
-1.32172e-07
1.00606e-05
-2.15957e-07
9.92077e-06
-3.04389e-07
9.73714e-06
-3.99264e-07
9.5066e-06
-5.02676e-07
9.22529e-06
-6.17133e-07
8.88854e-06
-7.45689e-07
8.49081e-06
-8.92125e-07
8.0257e-06
-1.06118e-06
7.48598e-06
-1.25887e-06
6.8639e-06
-1.49285e-06
6.1517e-06
-1.77291e-06
5.34285e-06
-2.11153e-06
4.43425e-06
-2.52427e-06
3.43017e-06
-3.0298e-06
2.34885e-06
-3.64847e-06
1.23259e-06
-4.39734e-06
1.61453e-07
-5.27729e-06
-7.33549e-07
-6.24279e-06
-1.27084e-06
-7.14092e-06
-1.26168e-06
-7.60436e-06
-6.68233e-07
-6.87489e-06
-3.6112e-06
1.22241e-05
1.4073e-08
1.22054e-05
-3.27905e-08
1.21539e-05
-8.0643e-08
1.20683e-05
-1.30384e-07
1.19469e-05
-1.83013e-07
1.17873e-05
-2.39678e-07
1.15864e-05
-3.0174e-07
1.13401e-05
-3.70851e-07
1.10435e-05