/*--------------------------------*- C++ -*----------------------------------*\
| =========                 |                                                 |
| \\      /  F ield         | OpenFOAM: The Open Source CFD Toolbox           |
|  \\    /   O peration     | Version:  v2012                                 |
|   \\  /    A nd           | Website:  www.openfoam.com                      |
|    \\/     M anipulation  |                                                 |
\*---------------------------------------------------------------------------*/
FoamFile
{
    version     2.0;
    format      ascii;
    class       volScalarField;
    location    "0.5";
    object      p;
}
// * * * * * * * * * * * * * * * * * * * * * * * * * * * * * * * * * * * * * //

dimensions      [0 2 -2 0 0 0 0];


internalField   nonuniform List<scalar> 
2500
(
7.01591e-06
-0.000554355
-0.00229228
-0.00491579
-0.00800696
-0.011236
-0.0143455
-0.0171353
-0.0194541
-0.0211908
-0.0222678
-0.0226344
-0.0222629
-0.0211445
-0.0192865
-0.01671
-0.0134477
-0.00954282
-0.00504721
-2.0482e-05
0.00547102
0.0113551
0.0175546
0.0239881
0.0305707
0.0372149
0.0438312
0.0503297
0.0566203
0.0626147
0.0682268
0.0733747
0.0779821
0.0819797
0.0853071
0.0879145
0.089765
0.0908363
0.0911232
0.0906399
0.0894227
0.0875337
0.0850638
0.082138
0.0789213
0.0756246
0.0725117
0.06991
0.0682264
0.0677186
0.00057681
1.36294e-05
-0.00142702
-0.00352237
-0.00597785
-0.0085521
-0.0110427
-0.0132827
-0.0151398
-0.0165126
-0.0173273
-0.0175334
-0.0171004
-0.0160156
-0.0142809
-0.0119115
-0.00893359
-0.00538333
-0.00130539
0.00324803
0.00821823
0.0135409
0.0191467
0.0249625
0.0309118
0.0369157
0.0428935
0.0487643
0.0544471
0.0598629
0.0649351
0.069591
0.0737635
0.0773923
0.0804257
0.0828219
0.0845513
0.0855978
0.0859612
0.085659
0.0847287
0.08323
0.0812477
0.0788943
0.0763128
0.0736787
0.0711992
0.0691139
0.0677147
0.0672112
0.00231774
0.00145424
3.32684e-06
-0.00188951
-0.00403655
-0.00625465
-0.00838263
-0.0102838
-0.0118459
-0.0129803
-0.0136204
-0.0137193
-0.0132475
-0.0121912
-0.0105499
-0.00833548
-0.00556989
-0.00228458
0.00148094
0.00567998
0.0102596
0.0151614
0.0203224
0.0256757
0.0311512
0.0366767
0.0421784
0.0475821
0.0528138
0.0578012
0.0624747
0.0667683
0.0706215
0.0739803
0.0767985
0.0790398
0.0806789
0.0817031
0.0821144
0.0819307
0.0811877
0.0799406
0.0782655
0.076261
0.074049
0.0717741
0.0696023
0.0677177
0.0663126
0.0655311
0.00496973
0.00356387
0.0018727
-4.96051e-05
-0.00211934
-0.0041947
-0.00614604
-0.00786364
-0.00925525
-0.0102462
-0.0107793
-0.0108136
-0.0103228
-0.00929446
-0.00772783
-0.00563312
-0.00303009
5.29556e-05
0.00358013
0.00750882
0.0117905
0.0163714
0.0211933
0.0261945
0.03131
0.0364726
0.0416141
0.0466654
0.0515578
0.0562241
0.0605997
0.0646237
0.0682398
0.0713984
0.0740571
0.0761824
0.0777515
0.0787529
0.0791886
0.0790748
0.0784437
0.077344
0.0758421
0.0740225
0.0719871
0.0698541
0.0677589
0.0658466
0.0642114
0.0629148
0.0081529
0.00607573
0.00401678
0.00193774
-0.000181018
-0.0022315
-0.00411053
-0.00573321
-0.00702657
-0.00793021
-0.00839716
-0.00839353
-0.00789777
-0.00689976
-0.0053998
-0.00340774
-0.000941994
0.00197126
0.00529889
0.00900155
0.0130343
0.0173474
0.0218868
0.026595
0.0314114
0.0362734
0.0411171
0.045878
0.0504916
0.054895
0.0590277
0.0628322
0.0662561
0.0692525
0.0717815
0.0738116
0.0753207
0.0762976
0.0767428
0.0766699
0.0761062
0.0750932
0.0736872
0.0719587
0.069991
0.0678786
0.0657318
0.063664
0.0616719
0.0597286
0.0115783
0.00877538
0.00627253
0.00394829
0.00168737
-0.000428848
-0.0023187
-0.0039191
-0.0051748
-0.00603903
-0.00647518
-0.00645699
-0.00596822
-0.0050021
-0.00356078
-0.00165466
0.000698305
0.00347325
0.00663901
0.0101587
0.0139904
0.0180874
0.0223993
0.0268721
0.0314489
0.0360707
0.0406775
0.0452081
0.0496018
0.0537989
0.0577418
0.0613759
0.064651
0.0675222
0.069951
0.0719066
0.0733668
0.0743193
0.0747625
0.0747062
0.0741724
0.073195
0.0718205
0.0701064
0.0681192
0.0659331
0.0636385
0.0613243
0.0588965
0.0562489
0.0150254
0.0114841
0.00849489
0.00586455
0.0033927
0.00114084
-0.000826086
-0.00246353
-0.00373193
-0.00459706
-0.00503224
-0.00501887
-0.00454635
-0.00361187
-0.00222002
-0.000382466
0.0018826
0.00455089
0.00759248
0.0109723
0.0146505
0.0185831
0.0227224
0.0270171
0.0314134
0.0358555
0.0402858
0.0446462
0.0488786
0.0529257
0.0567319
0.0602445
0.0634147
0.0661983
0.0685573
0.0704606
0.071885
0.0728162
0.0732496
0.0731909
0.0726562
0.0716722
0.0702759
0.0685133
0.0664366
0.064103
0.0615881
0.0589633
0.0560539
0.0526857
0.0183228
0.0140521
0.0105568
0.00758212
0.00485254
0.00241518
0.000322346
-0.00139686
-0.00271644
-0.00361339
-0.00407027
-0.00407587
-0.00362528
-0.00271989
-0.00136718
0.000419439
0.00262098
0.00521313
0.00816663
0.0114475
0.0150177
0.0188349
0.0228534
0.0270245
0.0312966
0.035616
0.0399274
0.0441746
0.0483015
0.0522523
0.0559727
0.059411
0.0625187
0.0652518
0.0675716
0.0694459
0.0708496
0.071766
0.0721868
0.0721131
0.0715553
0.070533
0.0690746
0.067216
0.0649973
0.0624622
0.059676
0.0566982
0.0532833
0.0491991
0.0213364
0.0163545
0.012347
0.00900557
0.00598774
0.00333066
0.0010773
-0.000755941
-0.00215466
-0.00310575
-0.00360013
-0.00363356
-0.00320668
-0.00232514
-0.000999567
0.000754557
0.00291701
0.00546303
0.00836349
0.0115851
0.0150907
0.0188394
0.0227872
0.0268867
0.0310882
0.0353397
0.0395872
0.0437761
0.0478512
0.0517577
0.0554418
0.0588519
0.0619392
0.064659
0.0669711
0.0688415
0.0702428
0.0711547
0.0715652
0.0714705
0.0708754
0.0697927
0.0682431
0.0662539
0.0638553
0.0610805
0.0579878
0.0546297
0.0506982
0.0459108
0.0239595
0.0182864
0.0137679
0.0100474
0.00672228
0.00382283
0.0013854
-0.000584053
-0.002081
-0.00310093
-0.00364236
-0.00370742
-0.00330209
-0.00243622
-0.00112367
0.000617734
0.00276625
0.00529628
0.00817843
0.0113796
0.0148633
0.0185893
0.0225147
0.0265932
0.0307763
0.035013
0.0392504
0.0434345
0.0475105
0.0514239
0.0551207
0.0585488
0.0616583
0.0644029
0.0667408
0.068635
0.0700551
0.0709773
0.0713851
0.0712698
0.0706306
0.069474
0.0678139
0.0656702
0.0630651
0.0600237
0.0566005
0.0528444
0.0483914
0.0429146
0.0261037
0.0197578
0.0147325
0.0106272
0.0069836
0.00382778
0.0011914
-0.000928213
-0.00253491
-0.00363175
-0.00422399
-0.0043197
-0.00392983
-0.00306836
-0.00175241
-2.28226e-06
0.00215853
0.00470329
0.007602
0.0108214
0.0143252
0.0180736
0.0220242
0.0261314
0.0303473
0.0346215
0.0389015
0.0431335
0.0472628
0.0512342
0.0549931
0.0584859
0.0616614
0.064471
0.0668702
0.068819
0.0702832
0.0712349
0.071653
0.0715236
0.0708404
0.0696042
0.0678226
0.0655093
0.0626801
0.0593539
0.0555839
0.0514179
0.0464408
0.0402845
0.0276932
0.0206887
0.0151617
0.0106695
0.0067019
0.00328207
0.0004386
-0.00183838
-0.00355999
-0.00473591
-0.00537752
-0.00549834
-0.00511404
-0.00424258
-0.00290432
-0.00112211
0.00107861
0.00366974
0.00662043
0.00989698
0.0134628
0.0172784
0.0213013
0.0254863
0.0297858
0.0341492
0.0385244
0.0428571
0.047092
0.051173
0.055044
0.0586499
0.0619369
0.0648538
0.0673529
0.0693905
0.0709282
0.0719335
0.0723802
0.0722494
0.0715291
0.0702146
0.0683079
0.0658173
0.0627534
0.0591307
0.0550026
0.050418
0.0449135
0.0380823
0.0286594
0.0210064
0.0149817
0.0101028
0.00580909
0.00212225
-0.000931174
-0.00336727
-0.00520351
-0.00645555
-0.00714035
-0.00727651
-0.00688419
-0.0059852
-0.0046031
-0.00276338
-0.000493503
0.00217687
0.00521578
0.00858882
0.012259
0.0161865
0.0203289
0.0246408
0.0290744
0.033579
0.0381021
0.0425886
0.0469821
0.0512252
0.05526
0.0590289
0.0624753
0.0655448
0.0681858
0.0703505
0.0719956
0.0730836
0.073583
0.0734694
0.0727252
0.0713402
0.0693113
0.0666421
0.0633387
0.0594125
0.0549183
0.0499077
0.0438705
0.0363623
0.028938
0.0206414
0.0141218
0.00885711
0.00423763
0.000284255
-0.00297785
-0.00557027
-0.00751624
-0.00883687
-0.00955433
-0.00969205
-0.00927451
-0.00832727
-0.00687713
-0.00495219
-0.0025821
0.000201822
0.00336633
0.00687608
0.0106934
0.0147781
0.0190874
0.0235756
0.0281943
0.0328924
0.0376165
0.0423107
0.046917
0.0513763
0.0556282
0.0596124
0.0632691
0.0665399
0.0693687
0.071703
0.0734944
0.0746996
0.0752815
0.0752098
0.0744611
0.0730196
0.0708775
0.0680338
0.064491
0.0602578
0.0553918
0.0499481
0.0433699
0.0351754
0.0284657
0.0195259
0.0125122
0.00686283
0.00191951
-0.00229736
-0.00576352
-0.00850562
-0.0105523
-0.0119299
-0.0126654
-0.0127871
-0.0123236
-0.0113042
-0.00975896
-0.00771871
-0.00521531
-0.00228188
0.00104693
0.0047347
0.00874293
0.0130308
0.0175549
0.0222691
0.0271245
0.0320692
0.0370486
0.0420054
0.0468802
0.0516115
0.0561363
0.0603911
0.064312
0.0678365
0.0709035
0.073455
0.0754367
0.0767995
0.0774997
0.0775007
0.0767732
0.0752956
0.0730549
0.0700459
0.0662679
0.0617274
0.056485
0.0506005
0.0434698
0.0345728
0.0271784
0.0175916
0.0100824
0.00404931
-0.00121492
-0.00569018
-0.00935289
-0.0122346
-0.0143693
-0.0157882
-0.0165234
-0.0166076
-0.0160739
-0.0149552
-0.0132849
-0.0110967
-0.00842466
-0.0053039
-0.00177052
0.00213783
0.00638173
0.0109196
0.0157074
0.0206983
0.0258427
0.0310879
0.0363778
0.0416539
0.0468546
0.051916
0.0567721
0.0613557
0.0655988
0.0694337
0.072794
0.0756155
0.0778377
0.0794044
0.0802652
0.0803765
0.0797022
0.0782149
0.075896
0.072736
0.0687308
0.0638851
0.0582631
0.0519293
0.0442308
0.0346082
0.0250098
0.0147679
0.00675975
0.000343527
-0.00523792
-0.0099647
-0.0138139
-0.0168221
-0.0190284
-0.0204693
-0.0211819
-0.0212034
-0.0205714
-0.0193229
-0.0174945
-0.0151228
-0.0122445
-0.00889654
-0.00511661
-0.000943642
0.00358194
0.00841773
0.013519
0.0188382
0.024325
0.0299256
0.0355828
0.0412363
0.0468224
0.0522744
0.0575232
0.0624975
0.0671246
0.0713314
0.0750455
0.0781959
0.0807148
0.0825386
0.0836091
0.0838751
0.0832932
0.081829
0.0794583
0.0761667
0.0719464
0.0668001
0.060796
0.0540033
0.0457185
0.0353405
0.0218896
0.0109807
0.00246818
-0.00433109
-0.0102254
-0.0151952
-0.0192184
-0.0223366
-0.0245947
-0.0260343
-0.0266978
-0.0266276
-0.0258656
-0.0244529
-0.0224301
-0.0198365
-0.0167115
-0.0130942
-0.00902378
-0.00454055
0.000314084
0.00549691
0.0109625
0.0166626
0.0225462
0.0285585
0.034641
0.0407318
0.0467649
0.0526709
0.058377
0.0638077
0.0688852
0.0735305
0.0776645
0.0812089
0.0840878
0.0862291
0.0875661
0.0880389
0.0875959
0.0861949
0.083805
0.0804065
0.0759875
0.070548
0.0641602
0.0568985
0.0480052
0.0368357
0.0177427
0.00615104
-0.00287321
-0.0100558
-0.0162579
-0.0214605
-0.0256425
-0.0288511
-0.0311371
-0.032548
-0.0331317
-0.0329362
-0.0320082
-0.0303934
-0.0281359
-0.0252788
-0.0218639
-0.0179325
-0.0135256
-0.00868467
-0.00345214
0.00212807
0.00800992
0.0141447
0.0204806
0.026962
0.0335294
0.0401192
0.0466632
0.0530891
0.0593205
0.0652772
0.0708762
0.0760322
0.0806585
0.0846689
0.0879785
0.0905059
0.0921745
0.0929146
0.0926651
0.0913751
0.0890059
0.0855315
0.0809346
0.0752125
0.068441
0.0606994
0.0511725
0.0391692
0.0124877
0.000194072
-0.00935124
-0.0169179
-0.0234219
-0.028845
-0.0331677
-0.0364432
-0.038729
-0.040079
-0.0405475
-0.0401883
-0.0390537
-0.0371941
-0.0346579
-0.0314918
-0.0277405
-0.0234475
-0.0186558
-0.0134078
-0.00774702
-0.00171779
0.0046334
0.0112575
0.0181022
0.0251114
0.0322246
0.0393768
0.0464977
0.0535122
0.0603402
0.066897
0.0730936
0.078838
0.0840358
0.0885916
0.0924109
0.0954015
0.097476
0.0985533
0.0985614
0.0974392
0.0951386
0.0916259
0.0868778
0.0808874
0.0737338
0.0655014
0.0553127
0.0424274
0.00603645
-0.00698235
-0.01706
-0.0250116
-0.0318103
-0.0374395
-0.0418812
-0.0451959
-0.0474484
-0.0487
-0.0490121
-0.0484453
-0.0470579
-0.0449058
-0.0420423
-0.0385176
-0.0343798
-0.0296748
-0.0244473
-0.0187409
-0.0125997
-0.00606856
0.000806049
0.00797501
0.015386
0.0229825
0.0307036
0.038483
0.0462489
0.0539233
0.0614227
0.0686575
0.075533
0.0819499
0.0878052
0.092994
0.0974108
0.100952
0.103516
0.105011
0.105351
0.104464
0.102289
0.098784
0.0939178
0.0876781
0.0801468
0.0714128
0.0605314
0.0467097
-0.00170742
-0.0154789
-0.0261022
-0.0344396
-0.0415246
-0.0473421
-0.0518771
-0.055198
-0.0573781
-0.0584874
-0.0585953
-0.0577703
-0.0560777
-0.0535797
-0.0503346
-0.0463972
-0.0418187
-0.0366478
-0.0309307
-0.0247123
-0.018037
-0.0109498
-0.00349676
0.00427331
0.0123085
0.0205526
0.0289445
0.0374173
0.0458978
0.0543058
0.0625544
0.0705494
0.0781901
0.0853697
0.0919762
0.097894
0.103006
0.107194
0.110345
0.11235
0.113109
0.112534
0.110553
0.107111
0.102168
0.0957039
0.0878026
0.078557
0.0669498
0.0521313
-0.0108497
-0.0254062
-0.0365909
-0.0453149
-0.0526755
-0.05866
-0.0632572
-0.0665446
-0.068606
-0.0695212
-0.0693693
-0.0682277
-0.0661701
-0.0632657
-0.0595787
-0.0551688
-0.0500909
-0.0443962
-0.0381327
-0.0313464
-0.0240816
-0.016383
-0.00829591
0.000131885
0.00884948
0.0178016
0.0269277
0.0361607
0.0454267
0.054644
0.0637224
0.0725635
0.0810608
0.0890996
0.0965585
0.103311
0.109225
0.114171
0.118016
0.120636
0.121913
0.121743
0.120037
0.116726
0.111756
0.1051
0.096841
0.0870754
0.0747069
0.0588249
-0.0215071
-0.036887
-0.0486512
-0.0577623
-0.065385
-0.0715104
-0.0761317
-0.0793382
-0.0812254
-0.0818852
-0.0814081
-0.0798822
-0.0773908
-0.0740112
-0.0698147
-0.0648662
-0.0592247
-0.0529442
-0.0460744
-0.0386616
-0.0307503
-0.022384
-0.0136068
-0.00446465
0.00499332
0.0147136
0.0246369
0.0346971
0.0448203
0.0549236
0.0649147
0.0746914
0.0841412
0.093142
0.101562
0.109264
0.1161
0.121924
0.126587
0.129943
0.131855
0.132197
0.130862
0.127762
0.122828
0.116021
0.107422
0.0971304
0.083963
0.0669441
-0.0338093
-0.050058
-0.0624231
-0.071921
-0.0797888
-0.0860223
-0.0906214
-0.0936889
-0.0953352
-0.0956663
-0.0947868
-0.0927974
-0.0897926
-0.0858596
-0.0810773
-0.0755167
-0.0692415
-0.0623083
-0.0547683
-0.0466682
-0.0380517
-0.0289608
-0.0194373
-0.00952469
0.000730757
0.0112782
0.0220609
0.0330145
0.0440661
0.055133
0.0661213
0.0769256
0.0874283
0.0974998
0.106999
0.115773
0.123663
0.130501
0.136119
0.140349
0.143029
0.14401
0.143159
0.140368
0.135547
0.128641
0.119729
0.108909
0.0949033
0.0766664
-0.047901
-0.0650732
-0.0780643
-0.0879475
-0.0960383
-0.102339
-0.106858
-0.109716
-0.11104
-0.110954
-0.109581
-0.107034
-0.103424
-0.0988475
-0.0933931
-0.0871386
-0.0801524
-0.0724943
-0.0642165
-0.0553656
-0.0459838
-0.0361109
-0.0257855
-0.0150474
-0.003939
0.00749285
0.019195
0.0311065
0.0431567
0.055264
0.0673345
0.0792604
0.0909198
0.102176
0.112878
0.12286
0.131947
0.139951
0.14668
0.151941
0.155544
0.15731
0.157079
0.154714
0.150101
0.143163
0.133972
0.122626
0.107742
0.0881971
-0.0639457
-0.0821076
-0.0957543
-0.106019
-0.114304
-0.12062
-0.124987
-0.127547
-0.12845
-0.127841
-0.125863
-0.12265
-0.118326
-0.113003
-0.106778
-0.0997378
-0.0919558
-0.0834944
-0.0744069
-0.0647392
-0.054531
-0.0438187
-0.0326369
-0.0210203
-0.00900607
0.0033644
0.0160432
0.028974
0.0420903
0.0553133
0.0685501
0.0816922
0.0946147
0.107175
0.119211
0.130546
0.140986
0.150322
0.158337
0.164808
0.169513
0.172238
0.172788
0.170991
0.166702
0.159816
0.150396
0.138532
0.122726
0.101775
-0.0821297
-0.101362
-0.1157
-0.12634
-0.13478
-0.141044
-0.145168
-0.147321
-0.14768
-0.14642
-0.143705
-0.139695
-0.134531
-0.12834
-0.121233
-0.113305
-0.104633
-0.0952839
-0.0853107
-0.0747575
-0.0636611
-0.052053
-0.0399621
-0.0274169
-0.0144475
-0.00108833
0.0126197
0.0266271
0.040873
0.0552832
0.0697682
0.0842205
0.0985135
0.112499
0.126009
0.138851
0.150815
0.161668
0.171165
0.179049
0.185063
0.188949
0.190471
0.189414
0.185592
0.178867
0.169281
0.156917
0.140147
0.117676
-0.102668
-0.123072
-0.138141
-0.149145
-0.15769
-0.163814
-0.16758
-0.169188
-0.168853
-0.166781
-0.163171
-0.158207
-0.152055
-0.144858
-0.136742
-0.12781
-0.118146
-0.107817
-0.0968778
-0.0853687
-0.073322
-0.0607631
-0.0477136
-0.0341937
-0.0202249
-0.00583258
0.00895144
0.0240863
0.0395193
0.0551834
0.0709943
0.0868481
0.102618
0.118155
0.133281
0.147794
0.161465
0.174037
0.185235
0.194766
0.202326
0.207613
0.210335
0.210227
0.20705
0.200621
0.190956
0.178122
0.160342
0.136226
-0.125813
-0.147511
-0.163361
-0.174711
-0.18329
-0.189162
-0.19242
-0.19331
-0.192092
-0.189015
-0.184316
-0.178213
-0.170897
-0.162534
-0.153264
-0.143199
-0.132429
-0.121023
-0.109034
-0.0964968
-0.0834386
-0.0698766
-0.0558231
-0.041288
-0.0262822
-0.0108197
0.00507915
0.0213845
0.0380544
0.0550315
0.0722397
0.0895811
0.106933
0.124145
0.141036
0.157391
0.172966
0.187479
0.200624
0.212063
0.221446
0.228413
0.232609
0.233704
0.231393
0.225434
0.215804
0.202543
0.18371
0.157803
-0.151862
-0.175011
-0.1917
-0.203365
-0.211882
-0.217351
-0.219909
-0.21986
-0.217523
-0.213203
-0.207182
-0.199717
-0.191033
-0.181319
-0.170729
-0.159388
-0.147389
-0.134802
-0.121675
-0.108038
-0.0939096
-0.0792964
-0.0641993
-0.048616
-0.0325438
-0.0159832
0.00105933
0.018568
0.0365143
0.0548536
0.0735214
0.0924296
0.111462
0.130472
0.149276
0.167652
0.185341
0.202037
0.217399
0.231047
0.242572
0.251548
0.257547
0.260155
0.258986
0.253718
0.244274
0.230655
0.210723
0.182858
-0.181178
-0.205973
-0.223567
-0.235498
-0.243821
-0.248687
-0.250294
-0.249024
-0.245274
-0.239414
-0.231787
-0.222698
-0.212406
-0.201128
-0.189034
-0.176258
-0.162897
-0.149019
-0.134665
-0.119858
-0.104605
-0.0888983
-0.0727262
-0.0560707
-0.0389134
-0.0212383
-0.00303532
0.0156967
0.0349461
0.0546844
0.0748625
0.0954058
0.11621
0.137134
0.157999
0.17858
0.198603
0.217744
0.235624
0.251818
0.265854
0.277229
0.285426
0.28993
0.290249
0.285957
0.276901
0.263021
0.241948
0.211924
-0.214204
-0.240892
-0.259465
-0.271586
-0.27953
-0.283522
-0.283849
-0.280998
-0.275462
-0.2677
-0.258125
-0.247098
-0.23492
-0.221834
-0.20803
-0.193647
-0.178783
-0.1635
-0.147833
-0.131789
-0.115362
-0.0985297
-0.0812614
-0.0635217
-0.0452735
-0.0264816
-0.00711599
0.0128443
0.0334079
0.0545664
0.0762902
0.0985231
0.121177
0.144124
0.167194
0.190164
0.212752
0.234616
0.255347
0.274467
0.29144
0.305675
0.316546
0.323418
0.325662
0.322716
0.314317
0.300317
0.278066
0.245647
-0.251494
-0.280388
-0.300023
-0.312211
-0.319513
-0.322266
-0.320879
-0.315981
-0.308193
-0.298081
-0.286146
-0.272812
-0.258427
-0.243261
-0.227519
-0.211344
-0.194831
-0.178032
-0.160966
-0.143628
-0.125989
-0.108009
-0.089637
-0.0708158
-0.0514867
-0.0315921
-0.0110793
0.0100961
0.0319663
0.0545474
0.0778337
0.101793
0.126358
0.151424
0.176833
0.202373
0.227763
0.252648
0.27659
0.299067
0.319468
0.337105
0.35123
0.361054
0.365779
0.364662
0.357287
0.343371
0.319915
0.28481
-0.293754
-0.325255
-0.34603
-0.358094
-0.36438
-0.365391
-0.361717
-0.354171
-0.343543
-0.330533
-0.315744
-0.299673
-0.282715
-0.265167
-0.247242
-0.229084
-0.210775
-0.192352
-0.173815
-0.155134
-0.136261
-0.117128
-0.0976615
-0.0777794
-0.057398
-0.0364346
-0.0148103
0.00754578
0.0306935
0.0546771
0.0795201
0.10522
0.131739
0.158998
0.186867
0.215151
0.243579
0.271795
0.299341
0.325652
0.350046
0.371729
0.389808
0.403316
0.411234
0.412584
0.406731
0.393195
0.36853
0.330382
-0.341903
-0.376519
-0.398502
-0.410135
-0.414864
-0.413444
-0.406715
-0.395747
-0.381543
-0.364966
-0.346738
-0.327435
-0.307496
-0.287237
-0.266875
-0.246539
-0.226295
-0.206153
-0.186086
-0.166036
-0.145923
-0.125653
-0.105123
-0.0842227
-0.0628401
-0.0408642
-0.0181875
0.00529077
0.0296616
0.0550018
0.0813692
0.108796
0.137284
0.166788
0.197215
0.2284
0.260098
0.291963
0.323532
0.354206
0.383238
0.409724
0.432611
0.450715
0.462747
0.467413
0.463775
0.451056
0.425214
0.38358
-0.397156
-0.435539
-0.458753
-0.469468
-0.471853
-0.467042
-0.456237
-0.440848
-0.422148
-0.401196
-0.378846
-0.355749
-0.332382
-0.309069
-0.286012
-0.263317
-0.241015
-0.219082
-0.197451
-0.176028
-0.154699
-0.133334
-0.111797
-0.0899465
-0.0676394
-0.0447336
-0.02109
0.00342481
0.0289361
0.0555572
0.0833854
0.112495
0.142932
0.174701
0.207753
0.241972
0.277154
0.312985
0.349015
0.38463
0.419032
0.45121
0.47994
0.503786
0.521126
0.530252
0.5298
0.518551
0.491641
0.445959
-0.461161
-0.504144
-0.528512
-0.537529
-0.53641
-0.52687
-0.510623
-0.489529
-0.465194
-0.438904
-0.411645
-0.384136
-0.35687
-0.330157
-0.304165
-0.278953
-0.254503
-0.230739
-0.207547
-0.184785
-0.162295
-0.139909
-0.117454
-0.0947515
-0.071626
-0.0479018
-0.0234062
0.00202908
0.0285665
0.0563595
0.0855492
0.116259
0.148587
0.182596
0.218301
0.25565
0.294501
0.334598
0.375532
0.416707
0.457296
0.496201
0.532025
0.563054
0.587258
0.602399
0.606514
0.597724
0.569997
0.51956
-0.536212
-0.584845
-0.610081
-0.616135
-0.609794
-0.593652
-0.570141
-0.541701
-0.510341
-0.477583
-0.444536
-0.411956
-0.380319
-0.349885
-0.320754
-0.292915
-0.266276
-0.240693
-0.215989
-0.191965
-0.168414
-0.145121
-0.121871
-0.0984495
-0.0746446
-0.0502457
-0.0250452
0.00116166
0.0285762
0.0573948
0.0878065
0.119989
0.154102
0.190277
0.228608
0.269127
0.311783
0.356409
0.402677
0.450051
0.497721
0.544541
0.588961
0.628976
0.662082
0.685362
0.696036
0.691236
0.663208
0.607131
-0.625596
-0.681169
-0.706554
-0.707587
-0.693458
-0.668087
-0.634889
-0.597035
-0.556978
-0.516469
-0.47669
-0.438377
-0.401932
-0.367512
-0.335111
-0.304607
-0.275809
-0.248486
-0.222381
-0.19723
-0.172766
-0.148725
-0.124847
-0.100877
-0.0765678
-0.0516724
-0.0259483
0.000845869
0.0289513
0.0586086
0.0900576
0.123535
0.159269
0.197473
0.238332
0.281989
0.328511
0.377862
0.429846
0.484047
0.539743
0.595808
0.650598
0.70184
0.746509
0.780855
0.80099
0.802582
0.775279
0.712498
-0.734197
-0.798176
-0.822123
-0.814747
-0.788986
-0.750713
-0.704645
-0.654812
-0.604113
-0.55445
-0.506984
-0.462333
-0.420734
-0.382175
-0.34648
-0.313379
-0.282552
-0.253654
-0.226338
-0.200261
-0.175091
-0.150512
-0.126217
-0.101911
-0.0773097
-0.0521322
-0.0261017
0.00105893
0.0296296
0.0598953
0.0921478
0.126685
0.163811
0.203828
0.247031
0.293693
0.344035
0.398198
0.456181
0.517772
0.582436
0.649182
0.716389
0.781603
0.841285
0.890725
0.924588
0.936411
0.911845
0.841206
-0.869585
-0.943287
-0.96247
-0.941089
-0.897931
-0.841662
-0.778616
-0.713722
-0.650211
-0.589965
-0.533945
-0.482497
-0.435572
-0.392889
-0.354038
-0.318553
-0.285948
-0.255749
-0.2275
-0.200775
-0.175174
-0.150322
-0.125869
-0.101482
-0.0768394
-0.0516304
-0.0255465
0.0017222
0.0304922
0.0610906
0.0938597
0.12916
0.167372
0.208896
0.254149
0.303554
0.357522
0.41642
0.480518
0.549909
0.624386
0.703268
0.785156
0.867612
0.946724
1.01678
1.07066
1.09892
1.08102
1.00167
-1.04408
-1.1276
-1.13523
-1.09058
-1.02144
-0.940233
-0.855059
-0.771569
-0.693003
-0.620887
-0.555693
-0.497269
-0.445118
-0.398576
-0.356926
-0.31945
-0.285473
-0.254369
-0.22557
-0.198558
-0.172865
-0.148064
-0.12376
-0.0995865
-0.0751917
-0.050237
-0.0243874
0.00269523
0.0313588
0.0619682
0.0949123
0.130611
0.16952
0.212141
0.259018
0.310743
0.367945
0.431268
0.501333
0.57866
0.663549
0.755872
0.854772
0.958205
1.06224
1.16037
1.24355
1.29831
1.29476
1.20737
-1.27895
-1.368
-1.3503
-1.26714
-1.15946
-1.04412
-0.930692
-0.824881
-0.729257
-0.644412
-0.569903
-0.504783
-0.447908
-0.398112
-0.354289
-0.315437
-0.280666
-0.249192
-0.22033
-0.193477
-0.168101
-0.143727
-0.119926
-0.0962991
-0.072474
-0.0480907
-0.0227942
0.0037749
0.031989
0.0622434
0.0949661
0.130629
0.169758
0.212948
0.260873
0.3143
0.374093
0.441217
0.516717
0.601672
0.697093
0.803727
0.921723
1.05005
1.18553
1.32154
1.44747
1.54511
1.57103
1.48128
-1.61291
-1.69018
-1.61933
-1.4729
-1.30891
-1.14803
-0.999749
-0.868346
-0.754479
-0.656936
-0.573785
-0.502933
-0.442387
-0.390366
-0.345329
-0.305964
-0.271165
-0.239996
-0.211666
-0.185499
-0.160911
-0.137391
-0.114483
-0.0917698
-0.0688651
-0.0453969
-0.020999
0.0047001
0.032088
0.0615801
0.0936324
0.128756
0.167535
0.210644
0.258873
0.313156
0.374595
0.44449
0.524365
0.615969
0.721234
0.842152
0.980483
1.13715
1.31103
1.49708
1.68469
1.85151
1.93685
1.86473
-2.11671
-2.13163
-1.95349
-1.7052
-1.46123
-1.24197
-1.05307
-0.894445
-0.762875
-0.65417
-0.564256
-0.489555
-0.427069
-0.374348
-0.329408
-0.290646
-0.256765
-0.226707
-0.199598
-0.174713
-0.151433
-0.129229
-0.107633
-0.0862228
-0.0646082
-0.0424166
-0.0192811
0.0051709
0.0313305
0.0596203
0.0905091
0.124531
0.162304
0.204562
0.252185
0.30624
0.36804
0.439202
0.521732
0.6181
0.731322
0.864984
1.02314
1.2099
1.42826
1.67794
1.95233
2.22902
2.4309
2.43194
-2.91883
-2.74199
-2.35914
-1.95416
-1.60135
-1.31131
-1.07885
-0.894524
-0.748468
-0.632175
-0.538833
-0.463166
-0.401142
-0.349686
-0.306439
-0.269578
-0.237675
-0.2096
-0.18444
-0.161448
-0.140005
-0.119578
-0.0997075
-0.0799797
-0.0600146
-0.0394504
-0.0179313
0.00490469
0.0294389
0.0560859
0.0853099
0.117645
0.153719
0.194289
0.24028
0.292844
0.353436
0.42392
0.506709
0.604951
0.722773
0.865576
1.04032
1.25569
1.52173
1.84815
2.23977
2.68371
3.10337
3.31485
-4.30829
-3.58025
-2.81236
-2.18395
-1.69676
-1.33087
-1.05968
-0.85742
-0.704477
-0.58703
-0.495393
-0.422746
-0.364246
-0.316406
-0.276669
-0.243126
-0.214321
-0.189124
-0.166642
-0.14615
-0.127052
-0.108844
-0.0910907
-0.0734031
-0.0554247
-0.0368172
-0.017248
0.00362184
0.0261501
0.0507272
0.0777931
0.107857
0.141524
0.179529
0.222787
0.272455
0.330028
0.397471
0.477423
0.573484
0.690657
0.835998
1.01953
1.25553
1.56431
1.97281
2.50869
3.1901
4.01478
4.80843
-7.0462
-4.67305
-3.13913
-2.23595
-1.63553
-1.22712
-0.948417
-0.752886
-0.611063
-0.505263
-0.424411
-0.361286
-0.311041
-0.270328
-0.236762
-0.208595
-0.184514
-0.163509
-0.144785
-0.127701
-0.11173
-0.0964292
-0.0814128
-0.0663387
-0.050893
-0.0347772
-0.0176982
0.000642974
0.0205618
0.0424028
0.0665546
0.0934675
0.123678
0.15784
0.196771
0.241512
0.293422
0.354315
0.426674
0.513984
0.621291
0.756117
0.930001
1.16132
1.48062
1.9368
2.59636
3.5721
5.1944
7.6784
-11.6814
-5.75834
-2.98805
-1.87143
-1.28235
-0.928272
-0.706876
-0.559703
-0.455633
-0.378752
-0.320179
-0.274475
-0.238103
-0.208644
-0.184371
-0.16401
-0.146592
-0.13136
-0.117714
-0.105163
-0.0932993
-0.0817761
-0.0702901
-0.0585695
-0.0463633
-0.0334326
-0.0195421
-0.00445212
0.0120897
0.0303577
0.0506591
0.0733477
0.0988414
0.127646
0.160385
0.197851
0.241064
0.291378
0.350634
0.421417
0.5075
0.614664
0.752279
0.936874
1.20041
1.60434
2.26055
3.4718
6.35801
12.4032
)
;

boundaryField
{
    movingWall
    {
        type            zeroGradient;
    }
    fixedWalls
    {
        type            zeroGradient;
    }
    frontAndBack
    {
        type            empty;
    }
}


// ************************************************************************* //
