/*--------------------------------*- C++ -*----------------------------------*\
| =========                 |                                                 |
| \\      /  F ield         | OpenFOAM: The Open Source CFD Toolbox           |
|  \\    /   O peration     | Version:  v2012                                 |
|   \\  /    A nd           | Website:  www.openfoam.com                      |
|    \\/     M anipulation  |                                                 |
\*---------------------------------------------------------------------------*/
FoamFile
{
    version     2.0;
    format      ascii;
    class       volVectorField;
    location    "0.5";
    object      U;
}
// * * * * * * * * * * * * * * * * * * * * * * * * * * * * * * * * * * * * * //

dimensions      [0 1 -1 0 0 0 0];


internalField   nonuniform List<vector> 
2500
(
(3.26633e-05 -3.28284e-05 0)
(9.87662e-05 -4.07326e-05 0)
(0.000137328 -2.09866e-05 0)
(0.000106256 7.8543e-06 0)
(-8.73025e-06 3.77391e-05 0)
(-0.000206074 6.5362e-05 0)
(-0.000478433 8.9411e-05 0)
(-0.000815985 0.000109473 0)
(-0.00120778 0.000125524 0)
(-0.00164256 0.000137703 0)
(-0.00210914 0.000146214 0)
(-0.00259674 0.000151289 0)
(-0.00309506 0.00015317 0)
(-0.00359439 0.000152097 0)
(-0.00408566 0.00014831 0)
(-0.00456048 0.000142042 0)
(-0.00501114 0.000133523 0)
(-0.00543063 0.000122976 0)
(-0.00581263 0.000110621 0)
(-0.00615155 9.66754e-05 0)
(-0.0064425 8.13565e-05 0)
(-0.0066813 6.48817e-05 0)
(-0.00686452 4.74711e-05 0)
(-0.00698946 2.9349e-05 0)
(-0.00705419 1.07455e-05 0)
(-0.00705757 -8.10208e-06 0)
(-0.00699926 -2.69494e-05 0)
(-0.00687974 -4.5541e-05 0)
(-0.00670037 -6.36127e-05 0)
(-0.00646338 -8.08923e-05 0)
(-0.00617188 -9.71009e-05 0)
(-0.00582991 -0.000111954 0)
(-0.00544242 -0.000125164 0)
(-0.00501529 -0.000136443 0)
(-0.00455526 -0.000145502 0)
(-0.00406998 -0.000152064 0)
(-0.00356791 -0.000155859 0)
(-0.00305827 -0.000156634 0)
(-0.00255099 -0.000154152 0)
(-0.00205657 -0.000148202 0)
(-0.00158598 -0.000138599 0)
(-0.00115049 -0.000125195 0)
(-0.000761469 -0.000107896 0)
(-0.000430039 -8.67007e-05 0)
(-0.000166606 -6.17898e-05 0)
(1.99689e-05 -3.37531e-05 0)
(0.000123749 -4.0733e-06 0)
(0.00014492 2.37954e-05 0)
(9.98306e-05 4.17801e-05 0)
(3.21288e-05 3.20614e-05 0)
(4.10768e-05 -9.92581e-05 0)
(9.39111e-05 -9.30487e-05 0)
(4.54752e-05 1.44715e-05 0)
(-0.000168791 0.000161863 0)
(-0.000575858 0.000318395 0)
(-0.00117707 0.000468054 0)
(-0.00196006 0.000602513 0)
(-0.00290458 0.000717708 0)
(-0.00398594 0.000811899 0)
(-0.00517724 0.000884623 0)
(-0.00645078 0.000936155 0)
(-0.00777903 0.000967206 0)
(-0.00913518 0.000978754 0)
(-0.0104936 0.000971941 0)
(-0.01183 0.00094801 0)
(-0.0131217 0.000908266 0)
(-0.0143479 0.000854049 0)
(-0.0154893 0.000786724 0)
(-0.0165287 0.000707671 0)
(-0.0174508 0.000618285 0)
(-0.0182421 0.000519978 0)
(-0.0188911 0.000414183 0)
(-0.0193885 0.000302357 0)
(-0.019727 0.000185991 0)
(-0.0199013 6.66139e-05 0)
(-0.0199084 -5.42032e-05 0)
(-0.0197475 -0.000174848 0)
(-0.0194202 -0.000293656 0)
(-0.0189303 -0.000408917 0)
(-0.018284 -0.000518887 0)
(-0.0174901 -0.000621792 0)
(-0.0165597 -0.000715841 0)
(-0.0155065 -0.000799246 0)
(-0.0143463 -0.000870239 0)
(-0.0130976 -0.000927098 0)
(-0.011781 -0.000968175 0)
(-0.0104191 -0.00099193 0)
(-0.00903665 -0.000996969 0)
(-0.00765975 -0.000982083 0)
(-0.0063159 -0.000946305 0)
(-0.00503343 -0.00088897 0)
(-0.00384089 -0.000809824 0)
(-0.00276637 -0.000709175 0)
(-0.00183636 -0.000588176 0)
(-0.0010743 -0.000449331 0)
(-0.000498247 -0.000297483 0)
(-0.000117596 -0.000141654 0)
(7.24905e-05 1.65782e-06 0)
(0.000102965 0.000101875 0)
(4.21632e-05 9.98425e-05 0)
(2.24922e-05 -0.00013934 0)
(-1.00567e-05 -4.58156e-05 0)
(-0.00023415 0.000239622 0)
(-0.000706125 0.000609371 0)
(-0.00145181 0.001003 0)
(-0.00247274 0.00138414 0)
(-0.00375312 0.00173126 0)
(-0.00526584 0.00203225 0)
(-0.00697681 0.00228075 0)
(-0.00884791 0.00247403 0)
(-0.0108391 0.0026116 0)
(-0.0129098 0.00269447 0)
(-0.0150202 0.00272461 0)
(-0.0171315 0.00270463 0)
(-0.0192071 0.0026376 0)
(-0.0212123 0.00252685 0)
(-0.0231149 0.00237592 0)
(-0.0248856 0.00218849 0)
(-0.0264975 0.00196834 0)
(-0.0279271 0.00171934 0)
(-0.0291533 0.00144542 0)
(-0.0301587 0.00115062 0)
(-0.0309285 0.000839032 0)
(-0.0314517 0.000514871 0)
(-0.03172 0.000182447 0)
(-0.0317291 -0.000153815 0)
(-0.0314778 -0.000489379 0)
(-0.0309686 -0.000819586 0)
(-0.0302077 -0.00113968 0)
(-0.0292047 -0.0014448 0)
(-0.0279735 -0.00173005 0)
(-0.0265312 -0.00199052 0)
(-0.0248988 -0.00222131 0)
(-0.0231012 -0.00241764 0)
(-0.0211664 -0.00257487 0)
(-0.019126 -0.00268864 0)
(-0.0170146 -0.00275493 0)
(-0.0148695 -0.00277018 0)
(-0.0127302 -0.00273146 0)
(-0.0106378 -0.00263659 0)
(-0.00863433 -0.00248442 0)
(-0.0067617 -0.00227508 0)
(-0.0050605 -0.0020105 0)
(-0.00356832 -0.00169511 0)
(-0.00231755 -0.00133704 0)
(-0.00133242 -0.000950213 0)
(-0.000624854 -0.000557649 0)
(-0.000188776 -0.000196618 0)
(7.10489e-06 7.28389e-05 0)
(2.53656e-05 0.000146523 0)
(-4.90851e-06 -0.000112335 0)
(-0.000153918 0.000164525 0)
(-0.000600265 0.000710439 0)
(-0.00137372 0.00138032 0)
(-0.00248898 0.00208602 0)
(-0.00394341 0.00277017 0)
(-0.00571638 0.00339614 0)
(-0.00777451 0.00394164 0)
(-0.0100762 0.00439391 0)
(-0.0125745 0.00474658 0)
(-0.0152198 0.00499752 0)
(-0.0179612 0.00514758 0)
(-0.0207484 0.00519963 0)
(-0.0235321 0.00515794 0)
(-0.0262653 0.00502778 0)
(-0.0289033 0.00481512 0)
(-0.0314047 0.00452641 0)
(-0.0337313 0.00416845 0)
(-0.0358484 0.00374834 0)
(-0.037725 0.00327336 0)
(-0.0393341 0.002751 0)
(-0.0406527 0.00218894 0)
(-0.0416619 0.00159503 0)
(-0.0423469 0.000977319 0)
(-0.0426976 0.000344056 0)
(-0.0427079 -0.000296296 0)
(-0.0423767 -0.000935069 0)
(-0.0417073 -0.00156339 0)
(-0.0407077 -0.00217222 0)
(-0.039391 -0.00275238 0)
(-0.0377749 -0.00329459 0)
(-0.035882 -0.00378961 0)
(-0.0337396 -0.00422829 0)
(-0.0313798 -0.00460168 0)
(-0.028839 -0.00490124 0)
(-0.0261579 -0.00511893 0)
(-0.023381 -0.00524747 0)
(-0.0205561 -0.00528055 0)
(-0.0177335 -0.00521309 0)
(-0.0149654 -0.00504164 0)
(-0.0123048 -0.00476474 0)
(-0.00980429 -0.00438357 0)
(-0.00751418 -0.00390275 0)
(-0.00548084 -0.00333159 0)
(-0.003744 -0.00268593 0)
(-0.00233376 -0.00199105 0)
(-0.00126628 -0.00128612 0)
(-0.000538818 -0.000630049 0)
(-0.000129794 -0.000110758 0)
(-5.90772e-07 0.000130302 0)
(-3.37011e-05 -3.3467e-06 0)
(-0.000310134 0.000567956 0)
(-0.00100058 0.00145865 0)
(-0.00209863 0.00249825 0)
(-0.00360126 0.0035764 0)
(-0.00549779 0.00461716 0)
(-0.00776054 0.00556942 0)
(-0.0103492 0.00640037 0)
(-0.0132151 0.00709008 0)
(-0.0163037 0.00762771 0)
(-0.0195573 0.00800891 0)
(-0.0229166 0.00823396 0)
(-0.0263227 0.00830642 0)
(-0.0297175 0.00823229 0)
(-0.0330455 0.00801927 0)
(-0.0362538 0.00767631 0)
(-0.0392932 0.00721329 0)
(-0.0421179 0.00664076 0)
(-0.0446867 0.00596979 0)
(-0.0469627 0.00521188 0)
(-0.0489133 0.00437888 0)
(-0.0505111 0.00348295 0)
(-0.0517334 0.0025366 0)
(-0.0525627 0.00155264 0)
(-0.0529868 0.000544214 0)
(-0.0529986 -0.000475222 0)
(-0.0525967 -0.00149188 0)
(-0.0517853 -0.00249168 0)
(-0.050574 -0.00346031 0)
(-0.0489785 -0.00438324 0)
(-0.0470201 -0.00524588 0)
(-0.0447256 -0.00603369 0)
(-0.042128 -0.00673232 0)
(-0.0392653 -0.00732783 0)
(-0.0361809 -0.00780695 0)
(-0.0329232 -0.0081573 0)
(-0.0295448 -0.00836778 0)
(-0.0261021 -0.00842888 0)
(-0.0226546 -0.0083332 0)
(-0.0192636 -0.00807596 0)
(-0.0159912 -0.00765566 0)
(-0.0128986 -0.00707503 0)
(-0.0100445 -0.00634214 0)
(-0.00748311 -0.00547211 0)
(-0.00526111 -0.00448941 0)
(-0.00341533 -0.00343131 0)
(-0.00196851 -0.00235269 0)
(-0.000925193 -0.00133206 0)
(-0.000280055 -0.000480202 0)
(-2.81855e-05 3.54958e-05 0)
(-6.11756e-05 0.000188495 0)
(-0.000465913 0.00117314 0)
(-0.00140701 0.00249802 0)
(-0.00283854 0.00397763 0)
(-0.00473609 0.00548535 0)
(-0.007078 0.00693013 0)
(-0.00982746 0.00824821 0)
(-0.012936 0.00939688 0)
(-0.0163475 0.0103491 0)
(-0.0200003 0.0110895 0)
(-0.0238294 0.0116112 0)
(-0.0277681 0.0119137 0)
(-0.0317501 0.0120012 0)
(-0.0357102 0.0118814 0)
(-0.0395854 0.0115647 0)
(-0.0433162 0.0110633 0)
(-0.0468465 0.010391 0)
(-0.0501248 0.00956247 0)
(-0.0531039 0.00859345 0)
(-0.0557418 0.00750024 0)
(-0.0580017 0.00629972 0)
(-0.0598522 0.00500931 0)
(-0.0612676 0.0036469 0)
(-0.062228 0.00223086 0)
(-0.0627192 0.000780017 0)
(-0.0627335 -0.000686326 0)
(-0.0622693 -0.00214844 0)
(-0.0613311 -0.00358619 0)
(-0.0599303 -0.00497912 0)
(-0.0580844 -0.00630656 0)
(-0.0558177 -0.00754775 0)
(-0.053161 -0.00868202 0)
(-0.0501512 -0.00968908 0)
(-0.0468317 -0.0105493 0)
(-0.0432518 -0.0112439 0)
(-0.039466 -0.0117557 0)
(-0.035534 -0.0120692 0)
(-0.0315194 -0.0121714 0)
(-0.0274893 -0.0120523 0)
(-0.0235128 -0.0117059 0)
(-0.0196598 -0.0111306 0)
(-0.0159994 -0.010331 0)
(-0.012598 -0.00931887 0)
(-0.00951698 -0.00811557 0)
(-0.00681081 -0.00675426 0)
(-0.00452429 -0.00528373 0)
(-0.00268889 -0.00377313 0)
(-0.00131946 -0.00231746 0)
(-0.000430608 -0.00104498 0)
(-5.46078e-05 -0.000139217 0)
(-8.65468e-05 0.000459921 0)
(-0.000615843 0.00197897 0)
(-0.00180555 0.00383067 0)
(-0.00357049 0.00582208 0)
(-0.00586346 0.00781559 0)
(-0.0086498 0.00970873 0)
(-0.0118819 0.0114274 0)
(-0.0155019 0.0129204 0)
(-0.0194456 0.0141543 0)
(-0.023644 0.0151094 0)
(-0.0280249 0.0157765 0)
(-0.0325152 0.0161545 0)
(-0.0370418 0.0162482 0)
(-0.0415331 0.0160673 0)
(-0.0459201 0.015625 0)
(-0.0501372 0.0149371 0)
(-0.054123 0.0140216 0)
(-0.0578205 0.0128978 0)
(-0.0611782 0.0115866 0)
(-0.0641495 0.0101095 0)
(-0.0666941 0.00848915 0)
(-0.0687774 0.00674876 0)
(-0.0703708 0.00491225 0)
(-0.0714525 0.00300421 0)
(-0.072007 0.00104983 0)
(-0.0720257 -0.000925089 0)
(-0.0715066 -0.00289416 0)
(-0.0704548 -0.00483049 0)
(-0.0688827 -0.0067068 0)
(-0.0668096 -0.00849553 0)
(-0.0642621 -0.0101691 0)
(-0.0612739 -0.0116999 0)
(-0.0578857 -0.0130612 0)
(-0.0541451 -0.0142269 0)
(-0.0501061 -0.0151724 0)
(-0.0458286 -0.0158749 0)
(-0.0413782 -0.0163141 0)
(-0.0368248 -0.0164733 0)
(-0.032242 -0.0163396 0)
(-0.027706 -0.0159053 0)
(-0.0232937 -0.0151689 0)
(-0.0190815 -0.0141368 0)
(-0.0151433 -0.0128245 0)
(-0.0115484 -0.0112592 0)
(-0.00835958 -0.00948223 0)
(-0.00563095 -0.0075529 0)
(-0.00340455 -0.00555259 0)
(-0.00170751 -0.00358958 0)
(-0.000575903 -0.00180483 0)
(-7.90135e-05 -0.000390904 0)
(-0.000109828 0.000806573 0)
(-0.000758314 0.00297991 0)
(-0.0021905 0.00545246 0)
(-0.00428394 0.00802877 0)
(-0.00696849 0.0105645 0)
(-0.0101955 0.0129491 0)
(-0.0139052 0.0151005 0)
(-0.0180295 0.0169609 0)
(-0.0224952 0.0184916 0)
(-0.0272257 0.0196693 0)
(-0.0321417 0.0204829 0)
(-0.0371635 0.020931 0)
(-0.0422118 0.0210194 0)
(-0.0472094 0.02076 0)
(-0.0520819 0.0201691 0)
(-0.0567585 0.0192665 0)
(-0.061173 0.0180746 0)
(-0.0652642 0.016618 0)
(-0.0689765 0.0149227 0)
(-0.0722598 0.0130164 0)
(-0.0750707 0.0109277 0)
(-0.0773717 0.00868615 0)
(-0.0791324 0.0063222 0)
(-0.080329 0.0038672 0)
(-0.0809448 0.00135325 0)
(-0.0809702 -0.00118678 0)
(-0.0804033 -0.00371929 0)
(-0.0792493 -0.00621007 0)
(-0.0775214 -0.0086244 0)
(-0.07524 -0.0109273 0)
(-0.0724338 -0.0130836 0)
(-0.0691387 -0.0150586 0)
(-0.0653984 -0.0168181 0)
(-0.061264 -0.0183292 0)
(-0.0567934 -0.0195607 0)
(-0.0520513 -0.020484 0)
(-0.0471081 -0.0210735 0)
(-0.0420393 -0.021308 0)
(-0.0369245 -0.0211716 0)
(-0.0318462 -0.0206547 0)
(-0.0268883 -0.0197555 0)
(-0.0221344 -0.0184817 0)
(-0.0176661 -0.0168522 0)
(-0.0135611 -0.0148995 0)
(-0.00989132 -0.0126722 0)
(-0.00672148 -0.0102385 0)
(-0.00410546 -0.00769017 0)
(-0.00208384 -0.00514571 0)
(-0.000714329 -0.00275509 0)
(-0.000101391 -0.000715477 0)
(-0.00013132 0.00122412 0)
(-0.000893534 0.0041689 0)
(-0.00256072 0.00735648 0)
(-0.00497564 0.0105918 0)
(-0.00804585 0.0137269 0)
(-0.0117082 0.016646 0)
(-0.0158901 0.0192616 0)
(-0.0205123 0.0215107 0)
(-0.0254923 0.0233508 0)
(-0.0307449 0.0247563 0)
(-0.0361837 0.0257147 0)
(-0.0417225 0.026225 0)
(-0.0472762 0.0262946 0)
(-0.052762 0.0259378 0)
(-0.0581006 0.0251744 0)
(-0.0632168 0.0240286 0)
(-0.0680403 0.0225276 0)
(-0.0725061 0.0207016 0)
(-0.0765551 0.0185825 0)
(-0.0801346 0.016204 0)
(-0.0831982 0.0136013 0)
(-0.0857064 0.0108107 0)
(-0.0876268 0.00786966 0)
(-0.0889343 0.00481666 0)
(-0.0896109 0.00169115 0)
(-0.0896464 -0.0014665 0)
(-0.0890385 -0.00461504 0)
(-0.0877924 -0.00771248 0)
(-0.0859218 -0.0107162 0)
(-0.0834482 -0.0135832 0)
(-0.0804013 -0.0162706 0)
(-0.0768191 -0.0187355 0)
(-0.0727475 -0.0209362 0)
(-0.0682404 -0.0228323 0)
(-0.0633591 -0.0243855 0)
(-0.0581722 -0.0255607 0)
(-0.0527545 -0.0263266 0)
(-0.0471866 -0.0266573 0)
(-0.0415536 -0.0265331 0)
(-0.0359442 -0.0259419 0)
(-0.030449 -0.0248812 0)
(-0.0251591 -0.0233594 0)
(-0.0201642 -0.0213981 0)
(-0.015551 -0.0190341 0)
(-0.0114016 -0.0163224 0)
(-0.00779214 -0.0133385 0)
(-0.00478935 -0.0101824 0)
(-0.00244776 -0.00698069 0)
(-0.000846231 -0.00388972 0)
(-0.000122056 -0.0011089 0)
(-0.000151398 0.00170876 0)
(-0.00102251 0.00553894 0)
(-0.00291743 0.00953515 0)
(-0.00564653 0.0135042 0)
(-0.00909593 0.0172968 0)
(-0.0131879 0.020794 0)
(-0.0178368 0.0239048 0)
(-0.0229515 0.0265632 0)
(-0.0284394 0.0287243 0)
(-0.0342067 0.030361 0)
(-0.0401595 0.0314609 0)
(-0.0462049 0.0320237 0)
(-0.0522519 0.0320592 0)
(-0.0582127 0.0315847 0)
(-0.0640033 0.0306242 0)
(-0.0695444 0.0292065 0)
(-0.0747621 0.0273641 0)
(-0.0795882 0.025133 0)
(-0.0839609 0.0225514 0)
(-0.0878247 0.0196597 0)
(-0.0911313 0.0164997 0)
(-0.0938392 0.013115 0)
(-0.0959146 0.00955021 0)
(-0.0973309 0.00585133 0)
(-0.0980693 0.00206548 0)
(-0.0981188 -0.00175912 0)
(-0.0974766 -0.00557324 0)
(-0.0961479 -0.00932672 0)
(-0.0941465 -0.0129687 0)
(-0.0914943 -0.0164479 0)
(-0.0882221 -0.0197129 0)
(-0.0843691 -0.0227126 0)
(-0.079983 -0.0253971 0)
(-0.0751199 -0.0277179 0)
(-0.0698439 -0.0296292 0)
(-0.064227 -0.0310889 0)
(-0.058348 -0.0320594 0)
(-0.052292 -0.0325092 0)
(-0.0461497 -0.0324143 0)
(-0.0400157 -0.0317596 0)
(-0.0339875 -0.030541 0)
(-0.0281638 -0.0287669 0)
(-0.0226432 -0.0264605 0)
(-0.017522 -0.0236622 0)
(-0.0128933 -0.0204316 0)
(-0.00884542 -0.0168505 0)
(-0.00545845 -0.0130254 0)
(-0.00280118 -0.00908918 0)
(-0.000972863 -0.00520305 0)
(-0.000141419 -0.00156779 0)
(-0.000170426 0.00225745 0)
(-0.00114655 0.00708392 0)
(-0.00326301 0.0119815 0)
(-0.00629975 0.0167594 0)
(-0.0101224 0.0212681 0)
(-0.0146388 0.0253876 0)
(-0.0197499 0.0290252 0)
(-0.0253526 0.0321134 0)
(-0.0313435 0.0346062 0)
(-0.03762 0.0364766 0)
(-0.0440802 0.0377131 0)
(-0.0506244 0.0383176 0)
(-0.0571558 0.0383026 0)
(-0.0635817 0.0376894 0)
(-0.0698136 0.0365064 0)
(-0.0757685 0.0347876 0)
(-0.0813693 0.0325717 0)
(-0.086545 0.0299005 0)
(-0.0912313 0.0268191 0)
(-0.0953708 0.0233746 0)
(-0.0989133 0.019616 0)
(-0.101816 0.0155942 0)
(-0.104043 0.0113615 0)
(-0.105568 0.00697144 0)
(-0.10637 0.00247915 0)
(-0.106438 -0.00205912 0)
(-0.105769 -0.00658589 0)
(-0.104367 -0.0110426 0)
(-0.102245 -0.0153699 0)
(-0.0994271 -0.0195077 0)
(-0.0959432 -0.0233959 0)
(-0.0918335 -0.0269748 0)
(-0.0871471 -0.0301856 0)
(-0.0819418 -0.0329715 0)
(-0.076284 -0.0352786 0)
(-0.0702485 -0.0370569 0)
(-0.0639178 -0.0382619 0)
(-0.0573814 -0.0388559 0)
(-0.0507351 -0.0388097 0)
(-0.0440796 -0.0381044 0)
(-0.0375196 -0.0367333 0)
(-0.031162 -0.0347039 0)
(-0.0251144 -0.03204 0)
(-0.0194836 -0.0287842 0)
(-0.0143741 -0.0249997 0)
(-0.00988753 -0.0207732 0)
(-0.00611757 -0.0162162 0)
(-0.00314736 -0.011467 0)
(-0.00109586 -0.0066907 0)
(-0.0001599 -0.00208963 0)
(-0.000188733 0.00286791 0)
(-0.00126702 0.00879905 0)
(-0.00360029 0.0146897 0)
(-0.00693952 0.0203514 0)
(-0.0111306 0.0256357 0)
(-0.0160673 0.0304224 0)
(-0.0216368 0.0346186 0)
(-0.0277237 0.0381569 0)
(-0.0342139 0.0409919 0)
(-0.0409952 0.0430978 0)
(-0.0479577 0.0444655 0)
(-0.0549947 0.0450996 0)
(-0.0620038 0.0450167 0)
(-0.0688869 0.0442427 0)
(-0.0755516 0.0428113 0)
(-0.0819115 0.0407624 0)
(-0.0878865 0.0381408 0)
(-0.0934032 0.0349952 0)
(-0.0983953 0.0313774 0)
(-0.102804 0.0273419 0)
(-0.106577 0.0229451 0)
(-0.109671 0.0182453 0)
(-0.112049 0.0133025 0)
(-0.113683 0.00817837 0)
(-0.114552 0.00293584 0)
(-0.114643 -0.00236056 0)
(-0.113954 -0.00764497 0)
(-0.112487 -0.0128503 0)
(-0.110257 -0.0179083 0)
(-0.107284 -0.0227501 0)
(-0.103601 -0.0273066 0)
(-0.0992482 -0.0315088 0)
(-0.0942744 -0.0352889 0)
(-0.0887391 -0.0385811 0)
(-0.0827105 -0.0413227 0)
(-0.0762659 -0.0434554 0)
(-0.069491 -0.0449268 0)
(-0.0624795 -0.0456922 0)
(-0.0553324 -0.0457164 0)
(-0.0481565 -0.0449754 0)
(-0.0410639 -0.0434589 0)
(-0.0341699 -0.0411724 0)
(-0.0275919 -0.0381391 0)
(-0.0214478 -0.0344026 0)
(-0.0158544 -0.0300285 0)
(-0.0109267 -0.0251069 0)
(-0.00677281 -0.0197539 0)
(-0.00349015 -0.014112 0)
(-0.00121697 -0.00835006 0)
(-0.000177892 -0.00267289 0)
(-0.000206603 0.00353862 0)
(-0.00138524 0.0106809 0)
(-0.00393218 0.0176556 0)
(-0.00757045 0.0242763 0)
(-0.0121267 0.0303957 0)
(-0.0174806 0.0358947 0)
(-0.0235058 0.0406817 0)
(-0.0300743 0.0446905 0)
(-0.0370608 0.0478778 0)
(-0.0443435 0.0502205 0)
(-0.0518041 0.0517129 0)
(-0.0593289 0.0523639 0)
(-0.0668095 0.0521949 0)
(-0.0741431 0.0512374 0)
(-0.0812333 0.0495312 0)
(-0.0879903 0.0471227 0)
(-0.0943316 0.0440635 0)
(-0.100182 0.0404095 0)
(-0.105473 0.0362198 0)
(-0.110144 0.0315563 0)
(-0.114144 0.0264831 0)
(-0.117426 0.0210663 0)
(-0.119954 0.0153735 0)
(-0.121698 0.00947433 0)
(-0.122638 0.00343991 0)
(-0.122759 -0.002657 0)
(-0.122057 -0.00874211 0)
(-0.120535 -0.0147396 0)
(-0.118207 -0.0205726 0)
(-0.115092 -0.0261629 0)
(-0.111223 -0.0314321 0)
(-0.10664 -0.0363019 0)
(-0.101391 -0.0406948 0)
(-0.0955379 -0.0445356 0)
(-0.0891491 -0.047752 0)
(-0.0823041 -0.0502767 0)
(-0.0750918 -0.0520485 0)
(-0.0676097 -0.0530148 0)
(-0.0599637 -0.053133 0)
(-0.0522672 -0.0523732 0)
(-0.0446395 -0.0507203 0)
(-0.0372051 -0.0481761 0)
(-0.0300916 -0.0447623 0)
(-0.0234285 -0.0405218 0)
(-0.0173457 -0.0355218 0)
(-0.0119722 -0.0298547 0)
(-0.00743083 -0.0236399 0)
(-0.00383362 -0.0170242 0)
(-0.00133795 -0.0101805 0)
(-0.000195755 -0.00331699 0)
(-0.000224282 0.00426873 0)
(-0.00150241 0.0127277 0)
(-0.00426151 0.0208768 0)
(-0.0081971 0.0285314 0)
(-0.0131169 0.0355457 0)
(-0.0188865 0.0418026 0)
(-0.0253659 0.0472124 0)
(-0.0324141 0.0517119 0)
(-0.0398947 0.0552612 0)
(-0.0476757 0.0578412 0)
(-0.0556304 0.059451 0)
(-0.0636382 0.0601052 0)
(-0.0715844 0.059831 0)
(-0.0793617 0.0586666 0)
(-0.0868698 0.0566587 0)
(-0.0940161 0.0538609 0)
(-0.100716 0.0503323 0)
(-0.106892 0.0461365 0)
(-0.112475 0.0413402 0)
(-0.117404 0.0360131 0)
(-0.121625 0.0302269 0)
(-0.125093 0.0240557 0)
(-0.127771 0.0175749 0)
(-0.129627 0.010862 0)
(-0.13064 0.00399624 0)
(-0.130797 -0.00294148 0)
(-0.130091 -0.00986844 0)
(-0.128525 -0.0167002 0)
(-0.12611 -0.0233509 0)
(-0.122867 -0.0297332 0)
(-0.118825 -0.0357593 0)
(-0.114025 -0.0413409 0)
(-0.108516 -0.0463908 0)
(-0.102357 -0.0508235 0)
(-0.0956191 -0.0545567 0)
(-0.0883832 -0.0575129 0)
(-0.0807405 -0.0596215 0)
(-0.0727922 -0.0608206 0)
(-0.0646494 -0.0610591 0)
(-0.0564314 -0.0602998 0)
(-0.0482656 -0.0585212 0)
(-0.0402856 -0.0557205 0)
(-0.0326299 -0.0519158 0)
(-0.0254403 -0.0471487 0)
(-0.0188602 -0.041486 0)
(-0.0130336 -0.0350218 0)
(-0.00809844 -0.0278785 0)
(-0.00418182 -0.0202065 0)
(-0.00146048 -0.0121834 0)
(-0.000213816 -0.00402226 0)
(-0.000241982 0.00505799 0)
(-0.00161962 0.0149386 0)
(-0.00459089 0.0243525 0)
(-0.00882385 0.033116 0)
(-0.0141072 0.041085 0)
(-0.0202924 0.0481449 0)
(-0.0272254 0.0542095 0)
(-0.0347523 0.0592193 0)
(-0.042725 0.0631395 0)
(-0.0510013 0.0659564 0)
(-0.0594461 0.0676755 0)
(-0.0679312 0.068318 0)
(-0.0763364 0.0679185 0)
(-0.0845497 0.0665229 0)
(-0.0924672 0.0641858 0)
(-0.0999939 0.0609688 0)
(-0.107043 0.0569392 0)
(-0.113536 0.0521687 0)
(-0.119403 0.046732 0)
(-0.124583 0.0407068 0)
(-0.129021 0.0341729 0)
(-0.132672 0.0272119 0)
(-0.135498 0.0199073 0)
(-0.137468 0.0123443 0)
(-0.13856 0.00461005 0)
(-0.138758 -0.0032065 0)
(-0.138057 -0.0110144 0)
(-0.136457 -0.0187206 0)
(-0.133969 -0.0262304 0)
(-0.130612 -0.0334473 0)
(-0.126413 -0.0402738 0)
(-0.121412 -0.0466117 0)
(-0.115657 -0.0523632 0)
(-0.109207 -0.0574323 0)
(-0.102133 -0.0617259 0)
(-0.0945173 -0.0651555 0)
(-0.0864527 -0.0676397 0)
(-0.0780441 -0.0691061 0)
(-0.069407 -0.0694941 0)
(-0.0606672 -0.0687573 0)
(-0.05196 -0.0668664 0)
(-0.0434286 -0.0638121 0)
(-0.0352228 -0.0596078 0)
(-0.0274973 -0.0542918 0)
(-0.02041 -0.0479298 0)
(-0.0141203 -0.0406165 0)
(-0.00878234 -0.0324765 0)
(-0.00453868 -0.0236641 0)
(-0.00158613 -0.014362 0)
(-0.000232371 -0.00478989 0)
(-0.000259885 0.0059067 0)
(-0.00173786 0.0173143 0)
(-0.00492275 0.0280835 0)
(-0.00945474 0.0380308 0)
(-0.0151032 0.0470142 0)
(-0.0217051 0.0549221 0)
(-0.0290923 0.0616725 0)
(-0.0370973 0.0672115 0)
(-0.0455601 0.0715103 0)
(-0.0543284 0.0745624 0)
(-0.0632581 0.076381 0)
(-0.072214 0.0769956 0)
(-0.08107 0.0764496 0)
(-0.0897098 0.0747975 0)
(-0.0980263 0.072103 0)
(-0.105922 0.0684366 0)
(-0.11331 0.0638746 0)
(-0.120109 0.058497 0)
(-0.126251 0.0523873 0)
(-0.131673 0.0456311 0)
(-0.136321 0.0383164 0)
(-0.140151 0.0305326 0)
(-0.143123 0.0223708 0)
(-0.145208 0.0139239 0)
(-0.146382 0.00528672 0)
(-0.146629 -0.00344404 0)
(-0.145942 -0.0121694 0)
(-0.144321 -0.0207881 0)
(-0.141774 -0.0291966 0)
(-0.138319 -0.0372893 0)
(-0.13398 -0.0449591 0)
(-0.128796 -0.0520974 0)
(-0.122813 -0.0585959 0)
(-0.11609 -0.0643471 0)
(-0.108696 -0.0692464 0)
(-0.100714 -0.0731935 0)
(-0.0922389 -0.0760949 0)
(-0.0833777 -0.0778665 0)
(-0.0742508 -0.0784363 0)
(-0.0649901 -0.0777471 0)
(-0.0557388 -0.0757602 0)
(-0.04665 -0.072458 0)
(-0.0378855 -0.0678473 0)
(-0.0296134 -0.0619618 0)
(-0.0220068 -0.0548644 0)
(-0.0152417 -0.0466496 0)
(-0.00948898 -0.0374437 0)
(-0.00490795 -0.0274049 0)
(-0.00171643 -0.0167218 0)
(-0.000251696 -0.00562189 0)
(-0.000278154 0.00681566 0)
(-0.00185802 0.0198567 0)
(-0.00525928 0.0320721 0)
(-0.0100935 0.0432784 0)
(-0.0161102 0.0533354 0)
(-0.0231311 0.0621354 0)
(-0.0309736 0.0696018 0)
(-0.0394564 0.0756872 0)
(-0.0484071 0.0803707 0)
(-0.057663 0.0836545 0)
(-0.0670711 0.0855611 0)
(-0.076489 0.0861299 0)
(-0.0857853 0.0854144 0)
(-0.0948394 0.0834793 0)
(-0.103542 0.0803983 0)
(-0.111793 0.0762521 0)
(-0.119504 0.0711261 0)
(-0.126596 0.0651099 0)
(-0.132999 0.0582956 0)
(-0.138652 0.0507774 0)
(-0.143502 0.0426511 0)
(-0.147504 0.034014 0)
(-0.15062 0.0249645 0)
(-0.152819 0.015603 0)
(-0.154079 0.00603159 0)
(-0.154382 -0.00364567 0)
(-0.15372 -0.0133221 0)
(-0.152091 -0.0228886 0)
(-0.149502 -0.0322332 0)
(-0.145966 -0.0412413 0)
(-0.141509 -0.0497959 0)
(-0.136163 -0.0577785 0)
(-0.129975 -0.0650695 0)
(-0.122999 -0.0715497 0)
(-0.115305 -0.0771019 0)
(-0.106974 -0.081613 0)
(-0.0981027 -0.0849763 0)
(-0.0888002 -0.0870944 0)
(-0.0791907 -0.087882 0)
(-0.069412 -0.0872696 0)
(-0.0596153 -0.0852068 0)
(-0.0499639 -0.0816657 0)
(-0.0406317 -0.0766446 0)
(-0.0318012 -0.0701708 0)
(-0.0236616 -0.0623032 0)
(-0.0164063 -0.0531345 0)
(-0.0102245 -0.0427925 0)
(-0.00529322 -0.0314392 0)
(-0.00185279 -0.0192696 0)
(-0.000272045 -0.006521 0)
(-0.000296935 0.00778608 0)
(-0.00198091 0.0225685 0)
(-0.00560254 0.036322 0)
(-0.0107436 0.0488624 0)
(-0.0171328 0.0600519 0)
(-0.0245762 0.0697871 0)
(-0.0328756 0.0779979 0)
(-0.0418357 0.0846451 0)
(-0.0512713 0.089717 0)
(-0.0610089 0.0932265 0)
(-0.0708867 0.0952071 0)
(-0.0807553 0.0957099 0)
(-0.090478 0.0948 0)
(-0.0999305 0.0925538 0)
(-0.109001 0.0890563 0)
(-0.117589 0.0843991 0)
(-0.125606 0.078678 0)
(-0.132973 0.0719924 0)
(-0.139621 0.0644436 0)
(-0.14549 0.0561342 0)
(-0.15053 0.0471682 0)
(-0.154694 0.0376502 0)
(-0.157948 0.027686 0)
(-0.16026 0.0173829 0)
(-0.161608 0.00684969 0)
(-0.161974 -0.00380256 0)
(-0.161348 -0.0144602 0)
(-0.159726 -0.0250065 0)
(-0.157113 -0.0353215 0)
(-0.153519 -0.0452821 0)
(-0.148966 -0.0547617 0)
(-0.143485 -0.0636315 0)
(-0.137117 -0.0717604 0)
(-0.129915 -0.0790172 0)
(-0.121945 -0.0852713 0)
(-0.113289 -0.0903957 0)
(-0.104041 -0.094269 0)
(-0.0943126 -0.0967787 0)
(-0.0842316 -0.0978248 0)
(-0.0739412 -0.0973228 0)
(-0.0636001 -0.0952087 0)
(-0.0533821 -0.0914421 0)
(-0.0434737 -0.0860103 0)
(-0.0340725 -0.0789323 0)
(-0.0253847 -0.0702612 0)
(-0.0176226 -0.0600869 0)
(-0.0109949 -0.0485377 0)
(-0.00569794 -0.0357795 0)
(-0.00199657 -0.0220144 0)
(-0.000293662 -0.00749069 0)
(-0.000316365 0.00881959 0)
(-0.00210732 0.0254536 0)
(-0.00595448 0.0408381 0)
(-0.0114084 0.0547881 0)
(-0.0181755 0.067168 0)
(-0.0260455 0.07788 0)
(-0.0348039 0.0868615 0)
(-0.0442402 0.0940829 0)
(-0.0541563 0.099544 0)
(-0.0643677 0.10327 0)
(-0.0747037 0.105308 0)
(-0.085008 0.105721 0)
(-0.0951389 0.10459 0)
(-0.104969 0.102002 0)
(-0.114385 0.0980569 0)
(-0.123287 0.092857 0)
(-0.131586 0.0865099 0)
(-0.139204 0.079125 0)
(-0.146076 0.0708133 0)
(-0.152142 0.0616861 0)
(-0.157355 0.0518552 0)
(-0.16167 0.0414325 0)
(-0.165053 0.0305307 0)
(-0.167475 0.0192633 0)
(-0.168913 0.00774542 0)
(-0.169348 -0.00390572 0)
(-0.168769 -0.01557 0)
(-0.167171 -0.027124 0)
(-0.164554 -0.0384402 0)
(-0.160927 -0.0493873 0)
(-0.156307 -0.0598297 0)
(-0.15072 -0.069628 0)
(-0.144204 -0.07864 0)
(-0.136808 -0.0867215 0)
(-0.128593 -0.0937281 0)
(-0.11964 -0.0995176 0)
(-0.110041 -0.103953 0)
(-0.0999088 -0.106904 0)
(-0.0893727 -0.108254 0)
(-0.078581 -0.107902 0)
(-0.0677001 -0.105766 0)
(-0.0569138 -0.101793 0)
(-0.0464219 -0.0959546 0)
(-0.0364377 -0.0882603 0)
(-0.0271857 -0.0787551 0)
(-0.0188983 -0.0675246 0)
(-0.0118058 -0.0546966 0)
(-0.00612542 -0.0404406 0)
(-0.0021491 -0.0249666 0)
(-0.000316786 -0.00853514 0)
(-0.000336582 0.00991821 0)
(-0.002238 0.0285166 0)
(-0.00631702 0.0456266 0)
(-0.0120909 0.0610616 0)
(-0.0192427 0.0746891 0)
(-0.027544 0.0864174 0)
(-0.0367631 0.0961928 0)
(-0.0466738 0.103998 0)
(-0.0570642 0.109845 0)
(-0.0677387 0.113774 0)
(-0.0785174 0.115847 0)
(-0.0892378 0.116145 0)
(-0.0997537 0.114761 0)
(-0.109935 0.1118 0)
(-0.119669 0.107374 0)
(-0.128854 0.101599 0)
(-0.137404 0.0945953 0)
(-0.145245 0.0864825 0)
(-0.152312 0.0773817 0)
(-0.158551 0.0674129 0)
(-0.163915 0.0566957 0)
(-0.168364 0.0453489 0)
(-0.171865 0.0334913 0)
(-0.17439 0.0212423 0)
(-0.175917 0.00872223 0)
(-0.176427 -0.00394614 0)
(-0.175907 -0.0166372 0)
(-0.174351 -0.0292215 0)
(-0.171754 -0.0415649 0)
(-0.168122 -0.0535286 0)
(-0.163468 -0.0649682 0)
(-0.157812 -0.0757344 0)
(-0.151186 -0.0856734 0)
(-0.143633 -0.0946279 0)
(-0.135213 -0.102439 0)
(-0.125999 -0.108948 0)
(-0.116083 -0.114 0)
(-0.105575 -0.117447 0)
(-0.0946064 -0.119153 0)
(-0.0833296 -0.118996 0)
(-0.0719179 -0.116876 0)
(-0.0605652 -0.112721 0)
(-0.0494846 -0.106487 0)
(-0.0389059 -0.0981692 0)
(-0.0290732 -0.0878028 0)
(-0.0202409 -0.0754672 0)
(-0.0126625 -0.0612885 0)
(-0.00657892 -0.0454396 0)
(-0.00231169 -0.0281383 0)
(-0.000341655 -0.00965918 0)
(-0.000357728 0.0110844 0)
(-0.00237378 0.0317634 0)
(-0.00669217 0.0506949 0)
(-0.0127946 0.0676906 0)
(-0.0203387 0.0826213 0)
(-0.0290765 0.0954025 0)
(-0.0387578 0.105992 0)
(-0.0491394 0.114384 0)
(-0.0599955 0.120609 0)
(-0.0711185 0.124723 0)
(-0.0823201 0.126807 0)
(-0.0934312 0.126958 0)
(-0.104302 0.125287 0)
(-0.114802 0.121917 0)
(-0.124816 0.116975 0)
(-0.134247 0.110592 0)
(-0.143011 0.102901 0)
(-0.151037 0.094033 0)
(-0.158265 0.0841193 0)
(-0.164645 0.0732886 0)
(-0.170133 0.061668 0)
(-0.174694 0.0493827 0)
(-0.178296 0.0365571 0)
(-0.180915 0.0233152 0)
(-0.182529 0.00978217 0)
(-0.183118 -0.00391507 0)
(-0.18267 -0.0176464 0)
(-0.181174 -0.0312773 0)
(-0.178624 -0.0446681 0)
(-0.17502 -0.0576732 0)
(-0.170369 -0.0701402 0)
(-0.164685 -0.0819104 0)
(-0.157995 -0.0928184 0)
(-0.150334 -0.102694 0)
(-0.141755 -0.111362 0)
(-0.132325 -0.118648 0)
(-0.122134 -0.124377 0)
(-0.111287 -0.12838 0)
(-0.0999175 -0.130499 0)
(-0.0881792 -0.13059 0)
(-0.0762518 -0.128531 0)
(-0.0643391 -0.124226 0)
(-0.0526677 -0.117614 0)
(-0.0414848 -0.108672 0)
(-0.0310552 -0.0974226 0)
(-0.0216573 -0.0839357 0)
(-0.0135705 -0.0683349 0)
(-0.00706167 -0.0507952 0)
(-0.00248567 -0.0315432 0)
(-0.000368516 -0.0108684 0)
(-0.000379963 0.0123209 0)
(-0.00251554 0.0352007 0)
(-0.00708213 0.0560517 0)
(-0.0135231 0.0746837 0)
(-0.021468 0.0909712 0)
(-0.0306478 0.104839 0)
(-0.040792 0.116256 0)
(-0.0516394 0.125235 0)
(-0.0629491 0.131824 0)
(-0.0745018 0.136099 0)
(-0.0861003 0.13816 0)
(-0.0975701 0.138127 0)
(-0.108759 0.136132 0)
(-0.119534 0.132314 0)
(-0.129784 0.126819 0)
(-0.139414 0.119794 0)
(-0.148345 0.111385 0)
(-0.156511 0.101737 0)
(-0.163856 0.090989 0)
(-0.170337 0.0792802 0)
(-0.175915 0.0667443 0)
(-0.180558 0.0535122 0)
(-0.184241 0.0397129 0)
(-0.18694 0.0254746 0)
(-0.188635 0.0109255 0)
(-0.189308 -0.00380433 0)
(-0.188944 -0.0185814 0)
(-0.187529 -0.0332675 0)
(-0.185054 -0.0477187 0)
(-0.181515 -0.0617836 0)
(-0.17691 -0.0753029 0)
(-0.171248 -0.0881087 0)
(-0.164546 -0.100025 0)
(-0.156833 -0.110868 0)
(-0.148152 -0.120447 0)
(-0.138564 -0.128569 0)
(-0.128149 -0.135039 0)
(-0.117012 -0.139664 0)
(-0.105282 -0.142261 0)
(-0.0931148 -0.142662 0)
(-0.0806946 -0.140717 0)
(-0.0682346 -0.136305 0)
(-0.0559748 -0.129342 0)
(-0.0441805 -0.119783 0)
(-0.0331388 -0.107633 0)
(-0.0231545 -0.0929525 0)
(-0.014535 -0.0758588 0)
(-0.007577 -0.0565286 0)
(-0.00267243 -0.0351966 0)
(-0.00039763 -0.0121689 0)
(-0.000403477 0.0136312 0)
(-0.00266434 0.0388363 0)
(-0.00748945 0.061707 0)
(-0.0142803 0.0820506 0)
(-0.0226359 0.0997463 0)
(-0.0322633 0.114729 0)
(-0.04287 0.126983 0)
(-0.0541755 0.136541 0)
(-0.0659228 0.143472 0)
(-0.0778805 0.147875 0)
(-0.0898431 0.149875 0)
(-0.101631 0.149616 0)
(-0.11309 0.147251 0)
(-0.124089 0.142943 0)
(-0.13452 0.136856 0)
(-0.144292 0.129153 0)
(-0.153331 0.119997 0)
(-0.16158 0.109544 0)
(-0.16899 0.0979451 0)
(-0.175523 0.0853469 0)
(-0.181148 0.0718897 0)
(-0.18584 0.0577095 0)
(-0.189576 0.0429391 0)
(-0.192337 0.0277091 0)
(-0.194104 0.0121499 0)
(-0.194862 -0.00360671 0)
(-0.194592 -0.0194256 0)
(-0.193281 -0.0351665 0)
(-0.190913 -0.0506822 0)
(-0.187479 -0.0658173 0)
(-0.182971 -0.0804065 0)