/*--------------------------------*- C++ -*----------------------------------*\
| =========                 |                                                 |
| \\      /  F ield         | OpenFOAM: The Open Source CFD Toolbox           |
|  \\    /   O peration     | Version:  v2012                                 |
|   \\  /    A nd           | Website:  www.openfoam.com                      |
|    \\/     M anipulation  |                                                 |
\*---------------------------------------------------------------------------*/
FoamFile
{
    version     2.0;
    format      ascii;
    class       volScalarField;
    location    "0.4";
    object      p;
}
// * * * * * * * * * * * * * * * * * * * * * * * * * * * * * * * * * * * * * //

dimensions      [0 2 -2 0 0 0 0];


internalField   nonuniform List<scalar> 
2500
(
7.14468e-06
-0.00055412
-0.00229196
-0.00491535
-0.00800639
-0.0112352
-0.0143446
-0.0171343
-0.0194529
-0.0211896
-0.0222664
-0.022633
-0.0222615
-0.0211431
-0.0192851
-0.0167085
-0.0134463
-0.00954154
-0.00504603
-1.94203e-05
0.00547196
0.0113559
0.0175553
0.0239887
0.0305711
0.0372151
0.0438313
0.0503296
0.0566201
0.0626143
0.0682263
0.0733741
0.0779814
0.0819789
0.0853063
0.0879137
0.0897642
0.0908356
0.0911225
0.0906392
0.0894222
0.0875333
0.0850635
0.0821379
0.0789213
0.0756247
0.0725119
0.0699103
0.0682268
0.067719
0.000577005
1.3859e-05
-0.00142673
-0.00352198
-0.00597736
-0.00855149
-0.011042
-0.0132819
-0.0151388
-0.0165116
-0.0173262
-0.0175322
-0.0170992
-0.0160143
-0.0142797
-0.0119103
-0.00893241
-0.0053822
-0.00130436
0.00324897
0.00821906
0.0135416
0.0191473
0.024963
0.0309122
0.0369159
0.0428936
0.0487642
0.054447
0.0598627
0.0649347
0.0695905
0.073763
0.0773918
0.0804251
0.0828213
0.0845507
0.0855972
0.0859607
0.0856586
0.0847283
0.0832297
0.0812476
0.0788943
0.0763129
0.0736789
0.0711995
0.0691142
0.0677151
0.0672116
0.00231788
0.00145441
3.56592e-06
-0.00188918
-0.00403613
-0.00625413
-0.00838201
-0.0102831
-0.011845
-0.0129794
-0.0136194
-0.0137182
-0.0132464
-0.0121901
-0.0105489
-0.00833441
-0.00556885
-0.00228357
0.00148188
0.00568084
0.0102604
0.0151621
0.020323
0.0256761
0.0311515
0.036677
0.0421786
0.0475821
0.0528137
0.0578011
0.0624744
0.066768
0.0706212
0.0739799
0.0767981
0.0790394
0.0806784
0.0817027
0.0821141
0.0819304
0.0811875
0.0799404
0.0782654
0.0762611
0.0740492
0.0717744
0.0696026
0.0677181
0.066313
0.0655315
0.00496977
0.00356396
0.00187286
-4.93601e-05
-0.002119
-0.00419427
-0.00614551
-0.00786303
-0.00925455
-0.0102454
-0.0107785
-0.0108127
-0.0103219
-0.00929351
-0.00772689
-0.00563219
-0.00302917
5.38524e-05
0.00358099
0.00750961
0.0117912
0.016372
0.0211938
0.0261949
0.0313103
0.0364729
0.0416143
0.0466655
0.0515577
0.056224
0.0605996
0.0646235
0.0682396
0.0713981
0.0740568
0.0761821
0.0777511
0.0787526
0.0791883
0.0790747
0.0784436
0.077344
0.0758422
0.0740226
0.0719873
0.0698544
0.0677593
0.065847
0.0642119
0.0629154
0.0081528
0.00607571
0.00401684
0.00193789
-0.000180767
-0.00223115
-0.0041101
-0.0057327
-0.00702598
-0.00792955
-0.00839642
-0.00839274
-0.00789695
-0.00689891
-0.00539896
-0.00340691
-0.00094118
0.00197205
0.00529966
0.00900228
0.013035
0.017348
0.0218873
0.0265954
0.0314117
0.0362737
0.0411174
0.0458781
0.0504916
0.054895
0.0590276
0.0628321
0.066256
0.0692523
0.0717813
0.0738114
0.0753205
0.0762974
0.0767427
0.0766699
0.0761062
0.0750933
0.0736873
0.0719589
0.0699913
0.067879
0.0657323
0.0636646
0.0616725
0.0597293
0.0115781
0.00877525
0.0062725
0.00394835
0.00168753
-0.000428593
-0.00231836
-0.00391867
-0.0051743
-0.00603847
-0.00647456
-0.00645632
-0.00596749
-0.00500134
-0.00356002
-0.00165392
0.000699032
0.00347396
0.0066397
0.0101594
0.013991
0.018088
0.0223998
0.0268725
0.0314492
0.036071
0.0406777
0.0452083
0.0496019
0.0537989
0.0577417
0.0613758
0.0646509
0.0675221
0.069951
0.0719065
0.0733667
0.0743192
0.0747625
0.0747063
0.0741725
0.0731952
0.0718207
0.0701067
0.0681196
0.0659335
0.063639
0.061325
0.0588973
0.0562497
0.015025
0.0114839
0.00849475
0.00586451
0.00339276
0.00114101
-0.000825824
-0.00246319
-0.00373152
-0.00459658
-0.00503171
-0.00501829
-0.00454573
-0.0036112
-0.00221934
-0.000381782
0.00188327
0.00455153
0.0075931
0.0109729
0.0146511
0.0185837
0.0227229
0.0270175
0.0314138
0.0358558
0.0402861
0.0446465
0.0488788
0.0529258
0.0567319
0.0602445
0.0634147
0.0661983
0.0685573
0.0704606
0.071885
0.0728162
0.0732496
0.073191
0.0726563
0.0716725
0.0702763
0.0685138
0.0664371
0.0641035
0.0615887
0.058964
0.0560548
0.0526867
0.0183223
0.0140518
0.0105566
0.007582
0.00485252
0.00241527
0.000322528
-0.00139659
-0.0027161
-0.00361299
-0.00406982
-0.00407537
-0.00362474
-0.0027193
-0.00136657
0.00042007
0.0026216
0.00521373
0.0081672
0.0114481
0.0150182
0.0188354
0.0228539
0.027025
0.031297
0.0356163
0.0399276
0.0441749
0.0483018
0.0522525
0.0559729
0.0594111
0.0625188
0.0652518
0.0675717
0.069446
0.0708498
0.0717661
0.072187
0.0721133
0.0715555
0.0705333
0.069075
0.0672165
0.0649978
0.0624629
0.0596767
0.056699
0.0532842
0.0492002
0.0213358
0.0163541
0.0123467
0.00900537
0.00598765
0.00333067
0.00107741
-0.00075574
-0.00215438
-0.0031054
-0.00359974
-0.00363313
-0.00320621
-0.00232464
-0.00099902
0.000755135
0.0029176
0.00546361
0.00836404
0.0115856
0.0150912
0.0188399
0.0227877
0.0268872
0.0310886
0.03534
0.0395875
0.0437764
0.0478515
0.051758
0.0554421
0.0588521
0.0619394
0.0646591
0.0669712
0.0688417
0.070243
0.0711549
0.0715655
0.0714708
0.0708757
0.0697931
0.0682436
0.0662545
0.063856
0.0610812
0.0579887
0.0546306
0.0506992
0.045912
0.0239587
0.0182859
0.0137675
0.0100472
0.00672213
0.00382278
0.00138545
-0.000583916
-0.00208077
-0.00310064
-0.003642
-0.00370703
-0.00330166
-0.00243577
-0.00112318
0.000618259
0.00276681
0.00529685
0.00817898
0.0113801
0.0148637
0.0185898
0.0225152
0.0265937
0.0307768
0.0350134
0.0392507
0.0434347
0.0475108
0.0514242
0.055121
0.0585491
0.0616585
0.0644031
0.0667409
0.0686352
0.0700554
0.0709776
0.0713855
0.0712702
0.070631
0.0694744
0.0678144
0.0656708
0.0630658
0.0600245
0.0566015
0.0528454
0.0483926
0.0429159
0.0261029
0.0197571
0.014732
0.0106268
0.00698341
0.00382769
0.0011914
-0.000928126
-0.00253474
-0.0036315
-0.00422367
-0.00431933
-0.00392943
-0.00306794
-0.00175197
-1.80359e-06
0.00215905
0.00470384
0.00760257
0.010822
0.0143257
0.0180741
0.0220246
0.0261319
0.0303478
0.0346219
0.0389019
0.0431339
0.0472631
0.0512345
0.0549934
0.0584863
0.0616617
0.0644713
0.0668704
0.0688192
0.0702835
0.0712352
0.0716534
0.0715241
0.0708409
0.0696047
0.0678232
0.06551
0.0626808
0.0593548
0.0555849
0.051419
0.046442
0.0402859
0.0276923
0.0206881
0.0151612
0.0106692
0.00670169
0.00328196
0.000438578
-0.00183833
-0.00355985
-0.0047357
-0.00537723
-0.00549799
-0.00511365
-0.00424217
-0.00290389
-0.00112166
0.00107909
0.00367027
0.00662099
0.00989755
0.0134633
0.0172789
0.0213017
0.0254868
0.0297862
0.0341497
0.0385249
0.0428576
0.0470924
0.0511733
0.0550444
0.0586503
0.0619373
0.0648542
0.0673533
0.0693909
0.0709286
0.0719339
0.0723807
0.07225
0.0715297
0.0702152
0.0683086
0.0658181
0.0627542
0.0591317
0.0550036
0.0504192
0.0449148
0.0380838
0.0286585
0.0210057
0.0149812
0.0101024
0.00580886
0.00212213
-0.000931201
-0.00336722
-0.0052034
-0.00645537
-0.00714009
-0.00727618
-0.0068838
-0.00598477
-0.00460266
-0.00276292
-0.000493033
0.00217737
0.00521633
0.00858941
0.0122596
0.0161871
0.0203294
0.0246413
0.0290749
0.0335796
0.0381026
0.0425891
0.0469826
0.0512256
0.0552604
0.0590293
0.0624757
0.0655453
0.0681863
0.0703509
0.071996
0.073084
0.0735835
0.07347
0.0727258
0.0713409
0.0693121
0.0666429
0.0633396
0.0594135
0.0549194
0.0499089
0.0438719
0.0363639
0.0289371
0.0206407
0.0141213
0.00885674
0.0042374
0.000284137
-0.00297787
-0.00557021
-0.00751612
-0.00883669
-0.00955409
-0.00969174
-0.00927412
-0.00832684
-0.00687666
-0.00495171
-0.00258161
0.000202324
0.00336687
0.00687667
0.010694
0.0147788
0.019088
0.0235761
0.0281948
0.032893
0.0376171
0.0423113
0.0469176
0.0513768
0.0556287
0.0596129
0.0632696
0.0665404
0.0693692
0.0717035
0.0734949
0.0747001
0.0752821
0.0752103
0.0744617
0.0730204
0.0708783
0.0680346
0.0644919
0.0602589
0.0553929
0.0499493
0.0433713
0.0351771
0.0284648
0.0195253
0.0125117
0.00686248
0.00191928
-0.00229747
-0.00576352
-0.00850554
-0.0105522
-0.0119297
-0.0126652
-0.0127868
-0.0123232
-0.0113037
-0.00975846
-0.00771819
-0.00521478
-0.00228135
0.00104748
0.00473528
0.00874356
0.0130315
0.0175556
0.0222698
0.0271252
0.0320698
0.0370492
0.0420061
0.0468809
0.0516121
0.0561369
0.0603916
0.0643125
0.067837
0.070904
0.0734556
0.0754373
0.0768001
0.0775003
0.0775014
0.0767739
0.0752964
0.0730557
0.0700468
0.0662689
0.0617285
0.0564862
0.0506018
0.0434712
0.0345745
0.0271776
0.017591
0.010082
0.00404901
-0.00121511
-0.00569026
-0.00935287
-0.0122345
-0.0143691
-0.015788
-0.0165231
-0.0166073
-0.0160735
-0.0149547
-0.0132844
-0.0110961
-0.00842407
-0.0053033
-0.00176993
0.00213844
0.00638238
0.0109203
0.0157081
0.0206991
0.0258435
0.0310885
0.0363784
0.0416546
0.0468553
0.0519167
0.0567728
0.0613563
0.0655993
0.0694342
0.0727945
0.0756162
0.0778384
0.0794051
0.0802659
0.0803772
0.079703
0.0782157
0.0758968
0.072737
0.0687319
0.0638863
0.0582644
0.0519306
0.0442323
0.0346098
0.0250091
0.0147674
0.0067594
0.000343297
-0.00523805
-0.00996474
-0.0138139
-0.016822
-0.0190282
-0.0204691
-0.0211815
-0.0212031
-0.020571
-0.0193224
-0.017494
-0.0151222
-0.0122439
-0.00889587
-0.00511595
-0.000942985
0.00358261
0.00841844
0.0135197
0.018839
0.0243258
0.0299263
0.0355835
0.041237
0.0468231
0.0522752
0.057524
0.0624982
0.0671253
0.0713321
0.0750461
0.0781965
0.0807155
0.0825393
0.0836099
0.0838759
0.083294
0.0818298
0.0794591
0.0761677
0.0719475
0.0668013
0.0607972
0.0540047
0.0457199
0.0353421
0.021889
0.0109803
0.00246792
-0.00433123
-0.0102254
-0.0151952
-0.0192183
-0.0223364
-0.0245944
-0.026034
-0.0266974
-0.0266271
-0.0258651
-0.0244524
-0.0224295
-0.0198359
-0.0167109
-0.0130934
-0.00902303
-0.0045398
0.000314819
0.00549766
0.0109633
0.0166635
0.0225471
0.0285593
0.0346418
0.0407326
0.0467657
0.0526717
0.0583779
0.0638085
0.0688859
0.0735312
0.0776652
0.0812096
0.0840885
0.0862299
0.0875669
0.0880398
0.0875967
0.0861958
0.0838059
0.0804075
0.0759885
0.0705492
0.0641615
0.0568999
0.0480067
0.0368374
0.0177422
0.00615076
-0.00287335
-0.0100559
-0.0162579
-0.0214604
-0.0256423
-0.0288509
-0.0311368
-0.0325476
-0.0331313
-0.0329357
-0.0320077
-0.0303928
-0.0281353
-0.0252782
-0.0218632
-0.0179317
-0.0135247
-0.00868382
-0.00345131
0.00212889
0.00801075
0.0141456
0.0204815
0.0269629
0.0335303
0.0401201
0.0466641
0.05309
0.0593213
0.0652781
0.0708771
0.076033
0.0806593
0.0846696
0.0879793
0.0905066
0.0921753
0.0929154
0.092666
0.0913761
0.0890069
0.0855325
0.0809357
0.0752137
0.0684422
0.0607008
0.0511739
0.0391708
0.0124874
0.000193928
-0.00935127
-0.0169178
-0.0234217
-0.0288448
-0.0331674
-0.0364429
-0.0387286
-0.0400786
-0.040547
-0.0401877
-0.039053
-0.0371934
-0.0346573
-0.0314911
-0.0277397
-0.0234467
-0.0186549
-0.0134069
-0.00774608
-0.00171686
0.00463431
0.0112584
0.0181031
0.0251124
0.0322257
0.0393778
0.0464986
0.0535131
0.0603411
0.0668979
0.0730945
0.0788389
0.0840367
0.0885925
0.0924117
0.0954023
0.0974768
0.0985542
0.0985623
0.0974402
0.0951396
0.0916269
0.0868788
0.0808885
0.073735
0.0655027
0.0553141
0.0424289
0.00603636
-0.00698233
-0.0170599
-0.0250114
-0.0318101
-0.0374391
-0.0418808
-0.0451955
-0.047448
-0.0486995
-0.0490116
-0.0484446
-0.0470572
-0.0449051
-0.0420415
-0.0385168
-0.034379
-0.029674
-0.0244463
-0.0187399
-0.0125987
-0.00606752
0.000807062
0.007976
0.015387
0.0229836
0.0307047
0.0384841
0.0462499
0.0539243
0.0614236
0.0686584
0.0755339
0.0819508
0.0878062
0.092995
0.0974117
0.100952
0.103517
0.105012
0.105352
0.104465
0.10229
0.0987851
0.0939188
0.0876792
0.080148
0.071414
0.0605328
0.0467112
-0.0017073
-0.0154787
-0.0261019
-0.0344393
-0.0415242
-0.0473417
-0.0518766
-0.0551974
-0.0573776
-0.0584868
-0.0585947
-0.0577696
-0.056077
-0.0535789
-0.0503338
-0.0463963
-0.0418178
-0.0366469
-0.0309297
-0.0247112
-0.0180359
-0.0109486
-0.00349563
0.00427442
0.0123096
0.0205537
0.0289457
0.0374185
0.0458989
0.0543069
0.0625554
0.0705504
0.0781911
0.0853707
0.0919772
0.0978951
0.103007
0.107195
0.110346
0.112351
0.113109
0.112535
0.110554
0.107112
0.102169
0.095705
0.0878037
0.0785582
0.0669511
0.0521327
-0.0108494
-0.0254058
-0.0365904
-0.0453145
-0.052675
-0.0586595
-0.0632565
-0.066544
-0.0686054
-0.0695205
-0.0693686
-0.068227
-0.0661693
-0.0632648
-0.0595778
-0.0551678
-0.0500899
-0.0443952
-0.0381317
-0.0313453
-0.0240805
-0.0163818
-0.00829467
0.000133115
0.0088507
0.0178028
0.0269289
0.0361619
0.045428
0.0546452
0.0637236
0.0725647
0.0810618
0.0891006
0.0965595
0.103312
0.109226
0.114172
0.118017
0.120637
0.121914
0.121744
0.120038
0.116727
0.111758
0.105101
0.0968421
0.0870766
0.0747081
0.0588262
-0.0215066
-0.0368864
-0.0486506
-0.0577617
-0.0653844
-0.0715097
-0.076131
-0.0793375
-0.0812247
-0.0818844
-0.0814073
-0.0798814
-0.0773899
-0.0740103
-0.0698137
-0.0648651
-0.0592236
-0.0529431
-0.0460733
-0.0386605
-0.0307491
-0.0223827
-0.0136055
-0.00446333
0.00499465
0.0147148
0.0246381
0.0346983
0.0448215
0.0549249
0.064916
0.0746927
0.0841424
0.0931431
0.101564
0.109265
0.116101
0.121925
0.126588
0.129944
0.131856
0.132198
0.130863
0.127763
0.122829
0.116022
0.107423
0.0971315
0.0839642
0.0669453
-0.0338085
-0.0500572
-0.0624223
-0.0719202
-0.0797881
-0.0860215
-0.0906206
-0.0936881
-0.0953343
-0.0956654
-0.0947859
-0.0927965
-0.0897917
-0.0858586
-0.0810762
-0.0755156
-0.0692403
-0.0623071
-0.0547671
-0.046667
-0.0380505
-0.0289595
-0.019436
-0.00952331
0.000732156
0.0112796
0.0220622
0.0330158
0.0440674
0.0551343
0.0661226
0.0769269
0.0874296
0.097501
0.107
0.115774
0.123664
0.130502
0.136121
0.14035
0.14303
0.144011
0.14316
0.140369
0.135548
0.128642
0.11973
0.10891
0.0949043
0.0766674
-0.0479
-0.0650722
-0.0780633
-0.0879465
-0.0960373
-0.102338
-0.106857
-0.109715
-0.111039
-0.110953
-0.10958
-0.107033
-0.103423
-0.0988465
-0.093392
-0.0871375
-0.0801512
-0.072493
-0.0642152
-0.0553643
-0.0459825
-0.0361095
-0.0257841
-0.015046
-0.00393756
0.00749429
0.0191964
0.0311079
0.0431581
0.0552654
0.0673358
0.0792617
0.0909211
0.102177
0.112879
0.122862
0.131948
0.139952
0.146681
0.151942
0.155545
0.157311
0.15708
0.154715
0.150102
0.143164
0.133973
0.122627
0.107743
0.0881981
-0.0639445
-0.0821065
-0.0957531
-0.106018
-0.114303
-0.120619
-0.124986
-0.127546
-0.128449
-0.12784
-0.125862
-0.122649
-0.118325
-0.113002
-0.106777
-0.0997366
-0.0919545
-0.0834931
-0.0744056
-0.0647378
-0.0545296
-0.0438173
-0.0326355
-0.0210189
-0.00900459
0.00336591
0.0160447
0.0289755
0.0420918
0.0553147
0.0685514
0.0816936
0.094616
0.107176
0.119213
0.130548
0.140987
0.150324
0.158339
0.164809
0.169514
0.172239
0.172789
0.170992
0.166703
0.159817
0.150397
0.138533
0.122727
0.101776
-0.0821283
-0.101361
-0.115698
-0.126339
-0.134779
-0.141043
-0.145167
-0.14732
-0.147679
-0.146418
-0.143704
-0.139694
-0.134529
-0.128339
-0.121232
-0.113303
-0.104632
-0.0952826
-0.0853093
-0.0747561
-0.0636596
-0.0520515
-0.0399606
-0.0274154
-0.014446
-0.00108677
0.0126213
0.0266287
0.0408745
0.0552847
0.0697696
0.0842219
0.0985148
0.112501
0.12601
0.138853
0.150816
0.161669
0.171166
0.17905
0.185064
0.18895
0.190472
0.189415
0.185593
0.178868
0.169282
0.156918
0.140148
0.117677
-0.102667
-0.12307
-0.138139
-0.149144
-0.157688
-0.163813
-0.167579
-0.169187
-0.168852
-0.16678
-0.16317
-0.158206
-0.152053
-0.144857
-0.136741
-0.127808
-0.118144
-0.107816
-0.0968764
-0.0853673
-0.0733205
-0.0607615
-0.047712
-0.0341921
-0.0202233
-0.00583099
0.00895302
0.0240879
0.0395209
0.055185
0.0709958
0.0868495
0.10262
0.118156
0.133283
0.147796
0.161466
0.174038
0.185237
0.194767
0.202327
0.207614
0.210336
0.210228
0.207051
0.200622
0.190957
0.178122
0.160343
0.136227
-0.125811
-0.14751
-0.16336
-0.17471
-0.183288
-0.18916
-0.192418
-0.193308
-0.19209
-0.189014
-0.184315
-0.178212
-0.170896
-0.162533
-0.153263
-0.143197
-0.132428
-0.121022
-0.109032
-0.0964953
-0.0834371
-0.069875
-0.0558215
-0.0412864
-0.0262806
-0.0108181
0.00508074
0.0213861
0.038056
0.0550331
0.0722412
0.0895826
0.106935
0.124146
0.141037
0.157393
0.172967
0.187481
0.200625
0.212064
0.221447
0.228414
0.23261
0.233704
0.231394
0.225434
0.215805
0.202544
0.18371
0.157804
-0.15186
-0.17501
-0.191698
-0.203363
-0.21188
-0.21735
-0.219907
-0.219859
-0.217522
-0.213201
-0.20718
-0.199716
-0.191032
-0.181318
-0.170728
-0.159387
-0.147388
-0.134801
-0.121673
-0.108037
-0.0939081
-0.0792949
-0.0641977
-0.0486144
-0.0325422
-0.0159816
0.00106094
0.0185696
0.0365158
0.0548552
0.073523
0.0924311
0.111464
0.130473
0.149277
0.167654
0.185342
0.202038
0.2174
0.231048
0.242573
0.251549
0.257548
0.260156
0.258987
0.253719
0.244275
0.230656
0.210724
0.182858
-0.181176
-0.205971
-0.223565
-0.235496
-0.24382
-0.248685
-0.250292
-0.249023
-0.245273
-0.239413
-0.231786
-0.222697
-0.212405
-0.201126
-0.189033
-0.176257
-0.162896
-0.149017
-0.134664
-0.119857
-0.104603
-0.0888968
-0.0727246
-0.0560691
-0.0389118
-0.0212367
-0.00303367
0.0156983
0.0349477
0.054686
0.0748641
0.0954073
0.116211
0.137136
0.158001
0.178581
0.198605
0.217745
0.235625
0.251819
0.265855
0.27723
0.285426
0.28993
0.290249
0.285957
0.276901
0.263021
0.241948
0.211924
-0.214202
-0.24089
-0.259463
-0.271584
-0.279528
-0.283521
-0.283848
-0.280997
-0.275461
-0.267699
-0.258124
-0.247097
-0.234919
-0.221833
-0.208029
-0.193645
-0.178781
-0.163499
-0.147831
-0.131788
-0.115361
-0.0985282
-0.0812598
-0.0635201
-0.0452719
-0.0264799
-0.00711432
0.012846
0.0334095
0.0545679
0.0762917
0.0985245
0.121178
0.144126
0.167196
0.190165
0.212754
0.234618
0.255348
0.274468
0.291441
0.305676
0.316547
0.323419
0.325663
0.322716
0.314318
0.300318
0.278067
0.245647
-0.251491
-0.280386
-0.300021
-0.312209
-0.319511
-0.322264
-0.320878
-0.31598
-0.308191
-0.298079
-0.286144
-0.272811
-0.258425
-0.24326
-0.227517
-0.211343
-0.194829
-0.17803
-0.160965
-0.143626
-0.125988
-0.108008
-0.0896355
-0.0708142
-0.0514851
-0.0315904
-0.0110776
0.0100977
0.031968
0.0545489
0.0778351
0.101794
0.12636
0.151425
0.176835
0.202375
0.227764
0.252649
0.276591
0.299068
0.319469
0.337106
0.351231
0.361055
0.36578
0.364663
0.357287
0.343371
0.319915
0.28481
-0.293752
-0.325253
-0.346029
-0.358092
-0.364378
-0.36539
-0.361715
-0.354169
-0.343541
-0.330531
-0.315743
-0.299672
-0.282714
-0.265166
-0.247241
-0.229083
-0.210774
-0.192351
-0.173814
-0.155133
-0.136259
-0.117127
-0.0976599
-0.0777778
-0.0573965
-0.036433
-0.0148087
0.00754741
0.0306951
0.0546786
0.0795216
0.105221
0.13174
0.159
0.186869
0.215152
0.24358
0.271796
0.299342
0.325653
0.350047
0.37173
0.389809
0.403316
0.411235
0.412584
0.406731
0.393196
0.36853
0.330382
-0.341901
-0.376517
-0.3985
-0.410133
-0.414862
-0.413442
-0.406714
-0.395746
-0.381541
-0.364965
-0.346737
-0.327434
-0.307495
-0.287236
-0.266874
-0.246538
-0.226294
-0.206152
-0.186085
-0.166035
-0.145922
-0.125652
-0.105122
-0.0842211
-0.0628385
-0.0408627
-0.018186
0.00529232
0.0296632
0.0550033
0.0813707
0.108798
0.137285
0.16679
0.197216
0.228401
0.260099
0.291964
0.323533
0.354207
0.383239
0.409725
0.432612
0.450715
0.462747
0.467413
0.463775
0.451057
0.425214
0.383579
-0.397154
-0.435537
-0.458751
-0.469467
-0.471851
-0.46704
-0.456236
-0.440847
-0.422147
-0.401195
-0.378845
-0.355748
-0.332381
-0.309068
-0.286011
-0.263316
-0.241014
-0.219081
-0.19745
-0.176027
-0.154698
-0.133333
-0.111796
-0.089945
-0.0676378
-0.0447321
-0.0210885
0.00342627
0.0289376
0.0555587
0.0833869
0.112497
0.142934
0.174702
0.207754
0.241973
0.277156
0.312986
0.349016
0.384631
0.419033
0.451211
0.47994
0.503787
0.521126
0.530252
0.5298
0.518551
0.491641
0.445959
-0.461159
-0.504142
-0.528511
-0.537527
-0.536408
-0.526869
-0.510622
-0.489528
-0.465193
-0.438903
-0.411644
-0.384135
-0.356869
-0.330156
-0.304164
-0.278952
-0.254502
-0.230738
-0.207546
-0.184784
-0.162294
-0.139908
-0.117452
-0.0947501
-0.0716245
-0.0479003
-0.0234048
0.00203048
0.0285678
0.0563609
0.0855506
0.11626
0.148588
0.182598
0.218302
0.255651
0.294502
0.334599
0.375533
0.416708
0.457297
0.496202
0.532026
0.563055
0.587259
0.602399
0.606514
0.597725
0.569997
0.51956
-0.53621
-0.584843
-0.610079
-0.616134
-0.609793
-0.593651
-0.57014
-0.5417
-0.51034
-0.477583
-0.444536
-0.411956
-0.380318
-0.349884
-0.320753
-0.292914
-0.266275
-0.240692
-0.215988
-0.191964
-0.168413
-0.145119
-0.121869
-0.0984482
-0.0746432
-0.0502442
-0.0250438
0.00116304
0.0285775
0.0573961
0.0878078
0.11999
0.154103
0.190278
0.228609
0.269128
0.311784
0.35641
0.402678
0.450052
0.497722
0.544541
0.588961
0.628976
0.662082
0.685363
0.696036
0.691236
0.663208
0.607131
-0.625594
-0.681167
-0.706553
-0.707585
-0.693457
-0.668086
-0.634888
-0.597034
-0.556977
-0.516468
-0.476689
-0.438377
-0.401931
-0.367512
-0.33511
-0.304606
-0.275809
-0.248485
-0.22238
-0.197229
-0.172765
-0.148724
-0.124845
-0.100876
-0.0765665
-0.051671
-0.0259469
0.000847264
0.0289526
0.0586098
0.0900588
0.123536
0.15927
0.197474
0.238334
0.28199
0.328512
0.377862
0.429846
0.484048
0.539744
0.595808
0.650599
0.701841
0.746509
0.780855
0.80099
0.802582
0.775279
0.712498
-0.734195
-0.798174
-0.822121
-0.814746
-0.788985
-0.750712
-0.704645
-0.654812
-0.604112
-0.55445
-0.506984
-0.462332
-0.420734
-0.382174
-0.346479
-0.313379
-0.282551
-0.253653
-0.226337
-0.20026
-0.17509
-0.150511
-0.126216
-0.10191
-0.0773085
-0.0521309
-0.0261003
0.0010603
0.0296309
0.0598966
0.0921489
0.126686
0.163812
0.203829
0.247032
0.293694
0.344036
0.398198
0.456182
0.517772
0.582437
0.649183
0.71639
0.781603
0.841286
0.890726
0.924588
0.936411
0.911845
0.841205
-0.869583
-0.943285
-0.962468
-0.941088
-0.89793
-0.841661
-0.778616
-0.713722
-0.65021
-0.589965
-0.533945
-0.482496
-0.435571
-0.392888
-0.354038
-0.318552
-0.285948
-0.255748
-0.2275
-0.200774
-0.175173
-0.150321
-0.125868
-0.101481
-0.0768382
-0.0516292
-0.0255453
0.0017235
0.0304935
0.0610919
0.0938609
0.129161
0.167373
0.208897
0.25415
0.303555
0.357523
0.41642
0.480518
0.549909
0.624387
0.703269
0.785156
0.867613
0.946725
1.01678
1.07066
1.09892
1.08102
1.00167
-1.04408
-1.1276
-1.13523
-1.09058
-1.02144
-0.940232
-0.855058
-0.771568
-0.693003
-0.620887
-0.555693
-0.497269
-0.445117
-0.398576
-0.356925
-0.31945
-0.285473
-0.254369
-0.225569
-0.198557
-0.172864
-0.148063
-0.12376
-0.0995854
-0.0751905
-0.0502359
-0.0243863
0.00269642
0.03136
0.0619695
0.0949135
0.130612
0.169521
0.212142
0.259019
0.310744
0.367946
0.431269
0.501333
0.578661
0.66355
0.755873
0.854773
0.958205
1.06224
1.16037
1.24355
1.29831
1.29476
1.20737
-1.27895
-1.368
-1.35029
-1.26714
-1.15945
-1.04412
-0.930691
-0.824881
-0.729256
-0.644412
-0.569903
-0.504783
-0.447908
-0.398112
-0.354289
-0.315437
-0.280666
-0.249192
-0.220329
-0.193476
-0.1681
-0.143727
-0.119925
-0.0962981
-0.0724729
-0.0480897
-0.0227931
0.00377601
0.0319902
0.0622446
0.0949673
0.13063
0.169759
0.212949
0.260874
0.314301
0.374094
0.441218
0.516718
0.601673
0.697093
0.803727
0.921723
1.05005
1.18553
1.32154
1.44747
1.54511
1.57103
1.48127
-1.61291
-1.69018
-1.61933
-1.4729
-1.30891
-1.14803
-0.999749
-0.868346
-0.754479
-0.656937
-0.573786
-0.502933
-0.442387
-0.390366
-0.345329
-0.305964
-0.271165
-0.239996
-0.211666
-0.185499
-0.160911
-0.137391
-0.114482
-0.091769
-0.0688641
-0.0453959
-0.0209979
0.00470119
0.0320891
0.0615813
0.0936336
0.128757
0.167536
0.210645
0.258874
0.313157
0.374595
0.444491
0.524366
0.61597
0.721235
0.842153
0.980483
1.13715
1.31103
1.49708
1.68469
1.85151
1.93685
1.86473
-2.11671
-2.13163
-1.95349
-1.7052
-1.46123
-1.24197
-1.05307
-0.894445
-0.762875
-0.65417
-0.564256
-0.489555
-0.427069
-0.374348
-0.329408
-0.290646
-0.256765
-0.226707
-0.199598
-0.174712
-0.151433
-0.129229
-0.107632
-0.086222
-0.0646073
-0.0424155
-0.01928
0.00517202
0.0313317
0.0596214
0.0905103
0.124532
0.162305
0.204564
0.252186
0.306241
0.368041
0.439203
0.521732
0.6181
0.731322
0.864984
1.02314
1.2099
1.42827
1.67794
1.95233
2.22902
2.4309
2.43194
-2.91883
-2.74199
-2.35914
-1.95416
-1.60135
-1.31131
-1.07885
-0.894524
-0.748469
-0.632175
-0.538833
-0.463166
-0.401142
-0.349686
-0.306439
-0.269578
-0.237676
-0.2096
-0.184439
-0.161448
-0.140004
-0.119578
-0.0997069
-0.0799791
-0.0600138
-0.0394493
-0.0179302
0.00490586
0.0294401
0.0560871
0.0853111
0.117646
0.153721
0.194291
0.240281
0.292845
0.353437
0.423921
0.50671
0.604952
0.722774
0.865576
1.04032
1.25569
1.52173
1.84815
2.23977
2.68371
3.10337
3.31484
-4.30829
-3.58025
-2.81236
-2.18394
-1.69676
-1.33087
-1.05968
-0.857421
-0.704478
-0.58703
-0.495394
-0.422747
-0.364247
-0.316406
-0.27667
-0.243126
-0.214321
-0.189124
-0.166642
-0.146149
-0.127051
-0.108844
-0.0910902
-0.0734024
-0.0554239
-0.0368162
-0.0172469
0.00362303
0.0261513
0.0507285
0.0777943
0.107858
0.141525
0.179531
0.222789
0.272457
0.330029
0.397472
0.477424
0.573484
0.690658
0.835998
1.01953
1.25553
1.56431
1.97281
2.50869
3.1901
4.01478
4.80843
-7.0462
-4.67305
-3.13913
-2.23595
-1.63553
-1.22712
-0.948417
-0.752886
-0.611064
-0.505264
-0.424412
-0.361287
-0.311042
-0.270329
-0.236763
-0.208595
-0.184515
-0.163509
-0.144785
-0.127701
-0.11173
-0.0964289
-0.0814122
-0.0663381
-0.0508922
-0.0347762
-0.0176971
0.000644184
0.0205631
0.0424042
0.066556
0.0934689
0.123679
0.157842
0.196772
0.241513
0.293423
0.354317
0.426675
0.513985
0.621292
0.756117
0.930002
1.16132
1.48062
1.9368
2.59636
3.5721
5.1944
7.6784
-11.6814
-5.75834
-2.98805
-1.87143
-1.28235
-0.928272
-0.706877
-0.559704
-0.455634
-0.378753
-0.32018
-0.274476
-0.238104
-0.208645
-0.184372
-0.164011
-0.146592
-0.13136
-0.117714
-0.105163
-0.0932993
-0.0817759
-0.0702897
-0.0585689
-0.0463625
-0.0334317
-0.019541
-0.00445088
0.0120911
0.0303592
0.0506607
0.0733493
0.098843
0.127647
0.160387
0.197852
0.241066
0.29138
0.350636
0.421418
0.507501
0.614665
0.75228
0.936874
1.20041
1.60434
2.26055
3.4718
6.35801
12.4032
)
;

boundaryField
{
    movingWall
    {
        type            zeroGradient;
    }
    fixedWalls
    {
        type            zeroGradient;
    }
    frontAndBack
    {
        type            empty;
    }
}


// ************************************************************************* //
