/*--------------------------------*- C++ -*----------------------------------*\
| =========                 |                                                 |
| \\      /  F ield         | OpenFOAM: The Open Source CFD Toolbox           |
|  \\    /   O peration     | Version:  v2012                                 |
|   \\  /    A nd           | Website:  www.openfoam.com                      |
|    \\/     M anipulation  |                                                 |
\*---------------------------------------------------------------------------*/
FoamFile
{
    version     2.0;
    format      ascii;
    class       volVectorField;
    location    "0.4";
    object      U;
}
// * * * * * * * * * * * * * * * * * * * * * * * * * * * * * * * * * * * * * //

dimensions      [0 1 -1 0 0 0 0];


internalField   nonuniform List<vector> 
2500
(
(3.26597e-05 -3.28293e-05 0)
(9.87585e-05 -4.07321e-05 0)
(0.00013732 -2.09861e-05 0)
(0.000106249 7.85393e-06 0)
(-8.73318e-06 3.77377e-05 0)
(-0.000206069 6.53597e-05 0)
(-0.000478418 8.94078e-05 0)
(-0.000815957 0.000109469 0)
(-0.00120774 0.000125519 0)
(-0.0016425 0.000137697 0)
(-0.00210906 0.000146208 0)
(-0.00259665 0.000151283 0)
(-0.00309494 0.000153164 0)
(-0.00359425 0.000152091 0)
(-0.00408551 0.000148304 0)
(-0.00456031 0.000142037 0)
(-0.00501095 0.000133518 0)
(-0.00543042 0.000122971 0)
(-0.00581241 0.000110616 0)
(-0.00615132 9.66717e-05 0)
(-0.00644225 8.1354e-05 0)
(-0.00668105 6.48804e-05 0)
(-0.00686426 4.74707e-05 0)
(-0.00698919 2.93491e-05 0)
(-0.00705393 1.07457e-05 0)
(-0.00705731 -8.10195e-06 0)
(-0.006999 -2.69482e-05 0)
(-0.00687949 -4.55384e-05 0)
(-0.00670013 -6.36092e-05 0)
(-0.00646314 -8.08886e-05 0)
(-0.00617165 -9.70973e-05 0)
(-0.0058297 -0.000111951 0)
(-0.00544223 -0.00012516 0)
(-0.00501511 -0.000136437 0)
(-0.0045551 -0.000145496 0)
(-0.00406984 -0.000152058 0)
(-0.00356779 -0.000155853 0)
(-0.00305817 -0.000156629 0)
(-0.00255091 -0.000154147 0)
(-0.0020565 -0.000148197 0)
(-0.00158593 -0.000138594 0)
(-0.00115046 -0.000125191 0)
(-0.000761451 -0.000107892 0)
(-0.000430031 -8.66977e-05 0)
(-0.000166605 -6.17881e-05 0)
(1.9965e-05 -3.37529e-05 0)
(0.000123743 -4.07438e-06 0)
(0.000144914 2.37935e-05 0)
(9.9827e-05 4.1778e-05 0)
(3.21277e-05 3.20602e-05 0)
(4.10736e-05 -9.92572e-05 0)
(9.39037e-05 -9.30466e-05 0)
(4.54689e-05 1.44707e-05 0)
(-0.000168789 0.000161857 0)
(-0.000575841 0.000318383 0)
(-0.00117703 0.000468036 0)
(-0.00195999 0.00060249 0)
(-0.00290447 0.000717681 0)
(-0.00398579 0.000811867 0)
(-0.00517704 0.000884588 0)
(-0.00645053 0.000936118 0)
(-0.00777873 0.000967168 0)
(-0.00913482 0.000978716 0)
(-0.0104932 0.000971904 0)
(-0.0118295 0.000947974 0)
(-0.0131212 0.000908231 0)
(-0.0143473 0.000854016 0)
(-0.0154887 0.000786693 0)
(-0.0165281 0.000707643 0)
(-0.0174501 0.000618261 0)
(-0.0182413 0.00051996 0)
(-0.0188904 0.000414169 0)
(-0.0193878 0.000302349 0)
(-0.0197262 0.000185988 0)
(-0.0199005 6.66145e-05 0)
(-0.0199076 -5.42002e-05 0)
(-0.0197468 -0.00017484 0)
(-0.0194195 -0.000293641 0)
(-0.0189296 -0.000408898 0)
(-0.0182833 -0.000518864 0)
(-0.0174895 -0.000621766 0)
(-0.0165591 -0.000715813 0)
(-0.0155059 -0.000799216 0)
(-0.0143458 -0.000870205 0)
(-0.0130971 -0.000927061 0)
(-0.0117806 -0.000968136 0)
(-0.0104188 -0.000991892 0)
(-0.00903634 -0.000996933 0)
(-0.00765949 -0.00098205 0)
(-0.0063157 -0.000946273 0)
(-0.00503327 -0.000888941 0)
(-0.00384078 -0.000809797 0)
(-0.00276629 -0.000709151 0)
(-0.00183631 -0.000588157 0)
(-0.00107427 -0.000449318 0)
(-0.000498238 -0.000297477 0)
(-0.000117597 -0.000141653 0)
(7.24855e-05 1.65413e-06 0)
(0.000102961 0.000101869 0)
(4.21618e-05 9.98383e-05 0)
(2.24904e-05 -0.000139335 0)
(-1.00591e-05 -4.58137e-05 0)
(-0.000234145 0.000239614 0)
(-0.000706103 0.000609349 0)
(-0.00145176 0.00100296 0)
(-0.00247265 0.00138409 0)
(-0.00375298 0.0017312 0)
(-0.00526564 0.00203217 0)
(-0.00697654 0.00228066 0)
(-0.00884757 0.00247393 0)
(-0.0108387 0.00261149 0)
(-0.0129093 0.00269436 0)
(-0.0150196 0.0027245 0)
(-0.0171309 0.00270453 0)
(-0.0192064 0.0026375 0)
(-0.0212114 0.00252675 0)
(-0.023114 0.00237582 0)
(-0.0248846 0.0021884 0)
(-0.0264965 0.00196826 0)
(-0.027926 0.00171927 0)
(-0.0291522 0.00144537 0)
(-0.0301575 0.00115058 0)
(-0.0309273 0.000839006 0)
(-0.0314504 0.000514859 0)
(-0.0317188 0.000182448 0)
(-0.0317279 -0.000153804 0)
(-0.0314766 -0.000489354 0)
(-0.0309674 -0.000819547 0)
(-0.0302065 -0.00113962 0)
(-0.0292037 -0.00144473 0)
(-0.0279724 -0.00172998 0)
(-0.0265302 -0.00199044 0)
(-0.0248979 -0.00222123 0)
(-0.0231003 -0.00241755 0)
(-0.0211656 -0.00257477 0)
(-0.0191254 -0.00268854 0)
(-0.0170141 -0.00275482 0)
(-0.014869 -0.00277008 0)
(-0.0127298 -0.00273136 0)
(-0.0106375 -0.0026365 0)
(-0.00863405 -0.00248433 0)
(-0.00676149 -0.002275 0)
(-0.00506035 -0.00201043 0)
(-0.00356821 -0.00169505 0)
(-0.00231749 -0.001337 0)
(-0.00133239 -0.000950186 0)
(-0.00062484 -0.000557636 0)
(-0.000188774 -0.000196618 0)
(7.10383e-06 7.28315e-05 0)
(2.53648e-05 0.000146516 0)
(-4.90889e-06 -0.00011233 0)
(-0.000153914 0.000164521 0)
(-0.000600245 0.000710413 0)
(-0.00137367 0.00138026 0)
(-0.00248888 0.00208594 0)
(-0.00394327 0.00277007 0)
(-0.00571616 0.00339601 0)
(-0.00777421 0.00394148 0)
(-0.0100758 0.00439374 0)
(-0.012574 0.00474639 0)
(-0.0152192 0.00499732 0)
(-0.0179605 0.00514737 0)
(-0.0207476 0.00519942 0)
(-0.0235312 0.00515773 0)
(-0.0262643 0.00502758 0)
(-0.0289022 0.00481493 0)
(-0.0314035 0.00452623 0)
(-0.03373 0.00416829 0)
(-0.035847 0.00374819 0)
(-0.0377235 0.00327323 0)
(-0.0393326 0.0027509 0)
(-0.0406511 0.00218886 0)
(-0.0416603 0.00159498 0)
(-0.0423453 0.000977293 0)
(-0.0426959 0.000344056 0)
(-0.0427063 -0.000296272 0)
(-0.0423751 -0.000935021 0)
(-0.0417057 -0.00156332 0)
(-0.0407062 -0.00217212 0)
(-0.0393896 -0.00275225 0)
(-0.0377735 -0.00329445 0)
(-0.0358807 -0.00378945 0)
(-0.0337384 -0.00422812 0)
(-0.0313786 -0.0046015 0)
(-0.0288379 -0.00490105 0)
(-0.026157 -0.00511873 0)
(-0.0233802 -0.00524727 0)
(-0.0205554 -0.00528035 0)
(-0.0177329 -0.0052129 0)
(-0.0149649 -0.00504146 0)
(-0.0123044 -0.00476457 0)
(-0.00980397 -0.00438342 0)
(-0.00751394 -0.00390262 0)
(-0.00548067 -0.00333148 0)
(-0.00374389 -0.00268584 0)
(-0.00233369 -0.001991 0)
(-0.00126625 -0.00128608 0)
(-0.000538804 -0.000630037 0)
(-0.000129791 -0.000110761 0)
(-5.90675e-07 0.000130294 0)
(-3.37001e-05 -3.34527e-06 0)
(-0.000310123 0.000567936 0)
(-0.00100055 0.0014586 0)
(-0.00209856 0.00249815 0)
(-0.00360112 0.00357626 0)
(-0.00549757 0.00461698 0)
(-0.00776024 0.0055692 0)
(-0.0103488 0.00640012 0)
(-0.0132146 0.0070898 0)
(-0.0163031 0.00762741 0)
(-0.0195565 0.0080086 0)
(-0.0229157 0.00823363 0)
(-0.0263216 0.00830609 0)
(-0.0297163 0.00823197 0)
(-0.0330442 0.00801895 0)
(-0.0362524 0.00767601 0)
(-0.0392916 0.00721301 0)
(-0.0421163 0.0066405 0)
(-0.044685 0.00596956 0)
(-0.0469608 0.00521169 0)
(-0.0489114 0.00437872 0)
(-0.0505091 0.00348283 0)
(-0.0517314 0.00253652 0)
(-0.0525607 0.0015526 0)
(-0.0529848 0.000544214 0)
(-0.0529966 -0.00047518 0)
(-0.0525947 -0.0014918 0)
(-0.0517833 -0.00249156 0)
(-0.0505721 -0.00346015 0)
(-0.0489767 -0.00438304 0)
(-0.0470183 -0.00524565 0)
(-0.044724 -0.00603343 0)
(-0.0421265 -0.00673204 0)
(-0.0392639 -0.00732754 0)
(-0.0361796 -0.00780665 0)
(-0.032922 -0.00815699 0)
(-0.0295437 -0.00836746 0)
(-0.0261012 -0.00842856 0)
(-0.0226538 -0.00833289 0)
(-0.019263 -0.00807566 0)
(-0.0159906 -0.00765539 0)
(-0.0128981 -0.00707479 0)
(-0.0100442 -0.00634193 0)
(-0.00748287 -0.00547193 0)
(-0.00526095 -0.00448927 0)
(-0.00341523 -0.0034312 0)
(-0.00196845 -0.00235262 0)
(-0.000925167 -0.00133202 0)
(-0.000280047 -0.000480196 0)
(-2.81846e-05 3.54903e-05 0)
(-6.11732e-05 0.000188489 0)
(-0.000465895 0.0011731 0)
(-0.00140696 0.00249793 0)
(-0.00283843 0.00397748 0)
(-0.00473591 0.00548514 0)
(-0.00707773 0.00692986 0)
(-0.00982708 0.00824788 0)
(-0.0129355 0.00939651 0)
(-0.0163469 0.0103487 0)
(-0.0199996 0.0110891 0)
(-0.0238285 0.0116108 0)
(-0.0277671 0.0119132 0)
(-0.0317489 0.0120007 0)
(-0.0357088 0.0118809 0)
(-0.0395839 0.0115642 0)
(-0.0433145 0.0110629 0)
(-0.0468447 0.0103906 0)
(-0.0501228 0.00956211 0)
(-0.0531018 0.00859313 0)
(-0.0557396 0.00749996 0)
(-0.0579995 0.00629949 0)
(-0.0598499 0.00500913 0)
(-0.0612653 0.00364678 0)
(-0.0622256 0.00223079 0)
(-0.0627168 0.000780016 0)
(-0.0627312 -0.000686264 0)
(-0.0622669 -0.00214832 0)
(-0.0613289 -0.00358601 0)
(-0.0599281 -0.0049789 0)
(-0.0580823 -0.00630629 0)
(-0.0558157 -0.00754742 0)
(-0.053159 -0.00868166 0)
(-0.0501494 -0.00968868 0)
(-0.0468301 -0.0105488 0)
(-0.0432503 -0.0112435 0)
(-0.0394646 -0.0117552 0)
(-0.0355327 -0.0120687 0)
(-0.0315183 -0.0121709 0)
(-0.0274884 -0.0120519 0)
(-0.023512 -0.0117055 0)
(-0.0196592 -0.0111302 0)
(-0.0159989 -0.0103306 0)
(-0.0125976 -0.00931855 0)
(-0.00951667 -0.0081153 0)
(-0.0068106 -0.00675405 0)
(-0.00452415 -0.00528357 0)
(-0.00268881 -0.00377302 0)
(-0.00131942 -0.00231739 0)
(-0.000430596 -0.00104496 0)
(-5.46064e-05 -0.000139217 0)
(-8.65434e-05 0.000459904 0)
(-0.00061582 0.00197889 0)
(-0.00180548 0.00383053 0)
(-0.00357036 0.00582186 0)
(-0.00586324 0.00781529 0)
(-0.00864947 0.00970835 0)
(-0.0118814 0.0114269 0)
(-0.0155013 0.0129199 0)
(-0.0194449 0.0141537 0)
(-0.0236431 0.0151088 0)
(-0.0280239 0.0157759 0)
(-0.032514 0.0161538 0)
(-0.0370404 0.0162476 0)
(-0.0415315 0.0160667 0)
(-0.0459183 0.0156244 0)
(-0.0501353 0.0149365 0)
(-0.0541209 0.014021 0)
(-0.0578183 0.0128973 0)
(-0.0611758 0.0115861 0)
(-0.0641471 0.0101091 0)
(-0.0666916 0.00848884 0)
(-0.0687748 0.00674852 0)
(-0.0703682 0.0049121 0)
(-0.0714499 0.00300413 0)
(-0.0720044 0.00104983 0)
(-0.072023 -0.000925005 0)
(-0.0715039 -0.00289399 0)
(-0.0704523 -0.00483026 0)
(-0.0688802 -0.0067065 0)
(-0.0668072 -0.00849516 0)
(-0.0642598 -0.0101686 0)
(-0.0612717 -0.0116994 0)
(-0.0578837 -0.0130607 0)
(-0.0541432 -0.0142264 0)
(-0.0501043 -0.0151718 0)
(-0.045827 -0.0158743 0)
(-0.0413768 -0.0163135 0)
(-0.0368235 -0.0164727 0)
(-0.032241 -0.016339 0)
(-0.0277051 -0.0159047 0)
(-0.0232929 -0.0151684 0)
(-0.0190808 -0.0141363 0)
(-0.0151428 -0.0128241 0)
(-0.011548 -0.0112588 0)
(-0.00835931 -0.00948193 0)
(-0.00563078 -0.00755267 0)
(-0.00340445 -0.00555243 0)
(-0.00170746 -0.00358948 0)
(-0.000575886 -0.00180478 0)
(-7.90115e-05 -0.000390896 0)
(-0.000109823 0.000806543 0)
(-0.000758285 0.0029798 0)
(-0.00219041 0.00545225 0)
(-0.00428378 0.00802846 0)
(-0.00696823 0.0105641 0)
(-0.0101951 0.0129486 0)
(-0.0139046 0.0151 0)
(-0.0180288 0.0169603 0)
(-0.0224944 0.0184909 0)
(-0.0272247 0.0196685 0)
(-0.0321405 0.0204821 0)
(-0.0371621 0.0209301 0)
(-0.0422102 0.0210186 0)
(-0.0472077 0.0207592 0)
(-0.0520799 0.0201684 0)
(-0.0567564 0.0192658 0)
(-0.0611707 0.0180739 0)
(-0.0652618 0.0166173 0)
(-0.0689739 0.0149222 0)
(-0.0722572 0.013016 0)
(-0.0750679 0.0109273 0)
(-0.0773689 0.00868585 0)
(-0.0791296 0.00632201 0)
(-0.0803261 0.0038671 0)
(-0.0809419 0.00135325 0)
(-0.0809673 -0.00118667 0)
(-0.0804004 -0.00371908 0)
(-0.0792465 -0.00620976 0)
(-0.0775186 -0.00862401 0)
(-0.0752374 -0.0109268 0)
(-0.0724313 -0.0130831 0)
(-0.0691363 -0.015058 0)
(-0.0653962 -0.0168175 0)
(-0.0612619 -0.0183285 0)
(-0.0567915 -0.01956 0)
(-0.0520496 -0.0204832 0)
(-0.0471065 -0.0210727 0)
(-0.0420379 -0.0213072 0)
(-0.0369233 -0.0211709 0)
(-0.0318452 -0.020654 0)
(-0.0268875 -0.0197549 0)
(-0.0221337 -0.0184811 0)
(-0.0176656 -0.0168517 0)
(-0.0135607 -0.014899 0)
(-0.00989101 -0.0126718 0)
(-0.00672127 -0.0102382 0)
(-0.00410534 -0.00768994 0)
(-0.00208378 -0.00514556 0)
(-0.000714307 -0.00275501 0)
(-0.000101388 -0.000715459 0)
(-0.000131315 0.00122407 0)
(-0.0008935 0.00416875 0)
(-0.00256062 0.0073562 0)
(-0.00497546 0.0105914 0)
(-0.00804556 0.0137264 0)
(-0.0117077 0.0166454 0)
(-0.0158895 0.0192608 0)
(-0.0205116 0.0215099 0)
(-0.0254914 0.0233499 0)
(-0.0307438 0.0247553 0)
(-0.0361824 0.0257137 0)
(-0.041721 0.026224 0)
(-0.0472745 0.0262935 0)
(-0.0527601 0.0259368 0)
(-0.0580985 0.0251734 0)
(-0.0632146 0.0240277 0)
(-0.0680378 0.0225268 0)
(-0.0725035 0.0207008 0)
(-0.0765524 0.0185818 0)
(-0.0801317 0.0162034 0)
(-0.0831952 0.0136008 0)
(-0.0857034 0.0108103 0)
(-0.0876238 0.00786942 0)
(-0.0889312 0.00481654 0)
(-0.0896078 0.00169115 0)
(-0.0896433 -0.00146637 0)
(-0.0890354 -0.00461479 0)
(-0.0877894 -0.0077121 0)
(-0.0859189 -0.0107157 0)
(-0.0834454 -0.0135827 0)
(-0.0803986 -0.0162699 0)
(-0.0768165 -0.0187348 0)
(-0.0727451 -0.0209354 0)
(-0.0682381 -0.0228314 0)
(-0.0633571 -0.0243845 0)
(-0.0581703 -0.0255597 0)
(-0.0527528 -0.0263256 0)
(-0.0471851 -0.0266564 0)
(-0.0415523 -0.0265321 0)
(-0.0359431 -0.025941 0)
(-0.0304481 -0.0248803 0)
(-0.0251583 -0.0233586 0)
(-0.0201636 -0.0213974 0)
(-0.0155505 -0.0190335 0)
(-0.0114012 -0.0163219 0)
(-0.0077919 -0.0133381 0)
(-0.0047892 -0.0101821 0)
(-0.00244768 -0.00698048 0)
(-0.000846205 -0.00388961 0)
(-0.000122052 -0.00110887 0)
(-0.000151393 0.00170869 0)
(-0.00102247 0.00553873 0)
(-0.00291733 0.00953479 0)
(-0.00564633 0.0135037 0)
(-0.00909561 0.0172961 0)
(-0.0131875 0.0207932 0)
(-0.0178362 0.0239039 0)
(-0.0229507 0.0265622 0)
(-0.0284384 0.0287233 0)
(-0.0342055 0.0303598 0)
(-0.0401582 0.0314597 0)
(-0.0462033 0.0320225 0)
(-0.0522501 0.032058 0)
(-0.0582107 0.0315836 0)
(-0.0640011 0.0306231 0)
(-0.069542 0.0292054 0)
(-0.0747595 0.0273631 0)
(-0.0795855 0.0251321 0)
(-0.083958 0.0225506 0)
(-0.0878217 0.019659 0)
(-0.0911282 0.0164992 0)
(-0.0938361 0.0131146 0)
(-0.0959114 0.00954993 0)
(-0.0973277 0.00585119 0)
(-0.098066 0.00206549 0)
(-0.0981156 -0.00175897 0)
(-0.0974734 -0.00557294 0)
(-0.0961448 -0.00932628 0)
(-0.0941434 -0.0129681 0)
(-0.0914913 -0.0164472 0)
(-0.0882193 -0.0197121 0)
(-0.0843664 -0.0227117 0)
(-0.0799804 -0.0253961 0)
(-0.0751175 -0.0277168 0)
(-0.0698418 -0.0296281 0)
(-0.064225 -0.0310878 0)
(-0.0583462 -0.0320582 0)
(-0.0522904 -0.0325081 0)
(-0.0461483 -0.0324132 0)
(-0.0400145 -0.0317586 0)
(-0.0339865 -0.03054 0)
(-0.028163 -0.0287659 0)
(-0.0226426 -0.0264597 0)
(-0.0175215 -0.0236614 0)
(-0.0128929 -0.020431 0)
(-0.00884516 -0.01685 0)
(-0.00545829 -0.013025 0)
(-0.0028011 -0.00908891 0)
(-0.000972833 -0.0052029 0)
(-0.000141415 -0.00156774 0)
(-0.000170421 0.00225736 0)
(-0.00114651 0.00708366 0)
(-0.0032629 0.011981 0)
(-0.00629953 0.0167587 0)
(-0.0101221 0.0212673 0)
(-0.0146383 0.0253867 0)
(-0.0197493 0.0290242 0)
(-0.0253517 0.0321122 0)
(-0.0313425 0.0346049 0)
(-0.0376187 0.0364752 0)
(-0.0440787 0.0377117 0)
(-0.0506227 0.0383162 0)
(-0.057154 0.0383012 0)
(-0.0635796 0.037688 0)
(-0.0698113 0.036505 0)
(-0.0757661 0.0347864 0)
(-0.0813667 0.0325705 0)
(-0.0865422 0.0298995 0)
(-0.0912284 0.0268182 0)
(-0.0953677 0.0233738 0)
(-0.0989102 0.0196154 0)
(-0.101813 0.0155937 0)
(-0.10404 0.0113611 0)
(-0.105565 0.00697128 0)
(-0.106367 0.00247916 0)
(-0.106435 -0.00205894 0)
(-0.105766 -0.00658554 0)
(-0.104363 -0.0110421 0)
(-0.102242 -0.0153692 0)
(-0.0994241 -0.0195069 0)
(-0.0959403 -0.023395 0)
(-0.0918307 -0.0269737 0)
(-0.0871445 -0.0301844 0)
(-0.0819394 -0.0329703 0)
(-0.0762818 -0.0352773 0)
(-0.0702464 -0.0370555 0)
(-0.0639159 -0.0382605 0)
(-0.0573797 -0.0388545 0)
(-0.0507336 -0.0388084 0)
(-0.0440784 -0.0381032 0)
(-0.0375186 -0.0367321 0)
(-0.0311611 -0.0347028 0)
(-0.0251137 -0.032039 0)
(-0.019483 -0.0287833 0)
(-0.0143737 -0.024999 0)
(-0.00988726 -0.0207725 0)
(-0.0061174 -0.0162157 0)
(-0.00314727 -0.0114667 0)
(-0.00109583 -0.00669051 0)
(-0.000159895 -0.00208957 0)
(-0.000188726 0.0028678 0)
(-0.00126698 0.00879873 0)
(-0.00360018 0.0146891 0)
(-0.0069393 0.0203507 0)
(-0.0111303 0.0256348 0)
(-0.0160668 0.0304213 0)
(-0.0216361 0.0346174 0)
(-0.0277228 0.0381555 0)
(-0.0342128 0.0409904 0)
(-0.0409939 0.0430963 0)
(-0.0479562 0.0444638 0)
(-0.054993 0.045098 0)
(-0.0620018 0.0450151 0)
(-0.0688847 0.0442411 0)
(-0.0755493 0.0428098 0)
(-0.081909 0.040761 0)
(-0.0878838 0.0381394 0)
(-0.0934003 0.034994 0)
(-0.0983923 0.0313763 0)
(-0.102801 0.027341 0)
(-0.106574 0.0229443 0)
(-0.109667 0.0182447 0)
(-0.112045 0.0133022 0)
(-0.113679 0.00817819 0)
(-0.114548 0.00293586 0)
(-0.11464 -0.00236035 0)
(-0.11395 -0.00764456 0)
(-0.112484 -0.0128497 0)
(-0.110253 -0.0179075 0)
(-0.107281 -0.0227492 0)
(-0.103598 -0.0273055 0)
(-0.0992454 -0.0315076 0)
(-0.0942717 -0.0352876 0)
(-0.0887366 -0.0385797 0)
(-0.0827082 -0.0413212 0)
(-0.0762638 -0.0434539 0)
(-0.0694891 -0.0449253 0)
(-0.0624778 -0.0456907 0)
(-0.0553309 -0.0457148 0)
(-0.0481552 -0.0449739 0)
(-0.0410628 -0.0434575 0)
(-0.034169 -0.041171 0)
(-0.0275912 -0.0381379 0)
(-0.0214472 -0.0344015 0)
(-0.015854 -0.0300276 0)
(-0.0109264 -0.0251062 0)
(-0.00677263 -0.0197533 0)
(-0.00349006 -0.0141115 0)
(-0.00121694 -0.00834982 0)
(-0.000177887 -0.00267281 0)
(-0.000206596 0.00353849 0)
(-0.00138519 0.0106806 0)
(-0.00393206 0.017655 0)
(-0.00757022 0.0242754 0)
(-0.0121264 0.0303946 0)
(-0.0174801 0.0358935 0)
(-0.0235052 0.0406803 0)
(-0.0300734 0.0446889 0)
(-0.0370598 0.0478761 0)
(-0.0443422 0.0502187 0)
(-0.0518026 0.051711 0)
(-0.0593272 0.052362 0)
(-0.0668076 0.052193 0)
(-0.074141 0.0512356 0)
(-0.0812309 0.0495295 0)
(-0.0879878 0.0471211 0)
(-0.0943289 0.044062 0)
(-0.100179 0.0404081 0)
(-0.10547 0.0362186 0)
(-0.110141 0.0315553 0)
(-0.114141 0.0264823 0)
(-0.117423 0.0210656 0)
(-0.119951 0.0153731 0)
(-0.121695 0.00947412 0)
(-0.122634 0.00343993 0)
(-0.122755 -0.00265676 0)
(-0.122053 -0.00874165 0)
(-0.120532 -0.014739 0)
(-0.118203 -0.0205717 0)
(-0.115089 -0.0261618 0)
(-0.11122 -0.0314309 0)
(-0.106637 -0.0363005 0)
(-0.101389 -0.0406933 0)
(-0.0955354 -0.044534 0)
(-0.0891467 -0.0477503 0)
(-0.082302 -0.0502749 0)
(-0.0750898 -0.0520467 0)
(-0.0676079 -0.053013 0)
(-0.0599622 -0.0531313 0)
(-0.0522659 -0.0523715 0)
(-0.0446384 -0.0507187 0)
(-0.0372042 -0.0481746 0)
(-0.0300909 -0.0447609 0)
(-0.023428 -0.0405206 0)
(-0.0173453 -0.0355207 0)
(-0.0119719 -0.0298538 0)
(-0.00743065 -0.0236393 0)
(-0.00383353 -0.0170237 0)
(-0.00133792 -0.0101802 0)
(-0.00019575 -0.00331689 0)
(-0.000224275 0.00426858 0)
(-0.00150236 0.0127272 0)
(-0.00426139 0.0208761 0)
(-0.00819688 0.0285304 0)
(-0.0131166 0.0355445 0)
(-0.018886 0.0418011 0)
(-0.0253652 0.0472108 0)
(-0.0324133 0.0517101 0)
(-0.0398936 0.0552593 0)
(-0.0476744 0.0578392 0)
(-0.055629 0.059449 0)
(-0.0636365 0.0601031 0)
(-0.0715825 0.059829 0)
(-0.0793595 0.0586646 0)
(-0.0868674 0.0566567 0)
(-0.0940136 0.0538591 0)
(-0.100713 0.0503306 0)
(-0.106889 0.046135 0)
(-0.112472 0.0413389 0)
(-0.117401 0.0360119 0)
(-0.121622 0.030226 0)
(-0.12509 0.0240549 0)
(-0.127767 0.0175744 0)
(-0.129624 0.0108618 0)
(-0.130637 0.00399627 0)
(-0.130794 -0.00294121 0)
(-0.130088 -0.00986793 0)
(-0.128521 -0.0166995 0)
(-0.126107 -0.0233499 0)
(-0.122864 -0.0297321 0)
(-0.118823 -0.0357579 0)
(-0.114022 -0.0413394 0)
(-0.108513 -0.0463892 0)
(-0.102354 -0.0508217 0)
(-0.0956168 -0.0545548 0)
(-0.0883811 -0.057511 0)
(-0.0807385 -0.0596195 0)
(-0.0727905 -0.0608186 0)
(-0.0646479 -0.0610572 0)
(-0.0564301 -0.0602979 0)
(-0.0482645 -0.0585194 0)
(-0.0402847 -0.0557188 0)
(-0.0326292 -0.0519143 0)
(-0.0254397 -0.0471473 0)
(-0.0188598 -0.0414848 0)
(-0.0130333 -0.0350208 0)
(-0.00809826 -0.0278777 0)
(-0.00418172 -0.0202059 0)
(-0.00146044 -0.012183 0)
(-0.000213811 -0.00402215 0)
(-0.000241975 0.00505782 0)
(-0.00161958 0.0149381 0)
(-0.00459077 0.0243517 0)
(-0.00882363 0.0331149 0)
(-0.0141069 0.0410836 0)
(-0.0202919 0.0481433 0)
(-0.0272247 0.0542077 0)
(-0.0347515 0.0592174 0)
(-0.0427239 0.0631374 0)
(-0.0510001 0.0659542 0)
(-0.0594446 0.0676732 0)
(-0.0679295 0.0683157 0)
(-0.0763346 0.0679163 0)
(-0.0845476 0.0665207 0)
(-0.092465 0.0641836 0)
(-0.0999914 0.0609668 0)
(-0.10704 0.0569374 0)
(-0.113533 0.052167 0)
(-0.1194 0.0467305 0)
(-0.12458 0.0407056 0)
(-0.129018 0.0341719 0)
(-0.132669 0.0272111 0)
(-0.135495 0.0199068 0)
(-0.137465 0.0123441 0)
(-0.138557 0.00461007 0)
(-0.138755 -0.0032062 0)
(-0.138054 -0.0110138 0)
(-0.136454 -0.0187198 0)
(-0.133966 -0.0262293 0)
(-0.130609 -0.033446 0)
(-0.12641 -0.0402723 0)
(-0.121409 -0.04661 0)
(-0.115654 -0.0523614 0)
(-0.109205 -0.0574304 0)
(-0.102131 -0.0617238 0)
(-0.0945153 -0.0651533 0)
(-0.0864509 -0.0676375 0)
(-0.0780425 -0.0691039 0)
(-0.0694055 -0.069492 0)
(-0.060666 -0.0687552 0)
(-0.0519589 -0.0668644 0)
(-0.0434277 -0.0638102 0)
(-0.0352221 -0.059606 0)
(-0.0274968 -0.0542902 0)
(-0.0204096 -0.0479285 0)
(-0.0141201 -0.0406154 0)
(-0.00878215 -0.0324756 0)
(-0.00453858 -0.0236635 0)
(-0.0015861 -0.0143617 0)
(-0.000232367 -0.00478977 0)
(-0.000259879 0.00590651 0)
(-0.00173782 0.0173138 0)
(-0.00492263 0.0280826 0)
(-0.00945453 0.0380296 0)
(-0.0151029 0.0470127 0)
(-0.0217046 0.0549203 0)
(-0.0290916 0.0616706 0)
(-0.0370965 0.0672094 0)
(-0.0455591 0.071508 0)
(-0.0543272 0.07456 0)
(-0.0632567 0.0763786 0)
(-0.0722124 0.0769932 0)
(-0.0810682 0.0764472 0)
(-0.0897078 0.0747951 0)
(-0.0980242 0.0721007 0)
(-0.10592 0.0684345 0)
(-0.113307 0.0638725 0)
(-0.120106 0.0584952 0)
(-0.126248 0.0523856 0)
(-0.13167 0.0456298 0)
(-0.136318 0.0383153 0)
(-0.140148 0.0305317 0)
(-0.14312 0.0223702 0)
(-0.145205 0.0139237 0)
(-0.146379 0.00528675 0)
(-0.146626 -0.00344372 0)
(-0.145939 -0.0121688 0)
(-0.144318 -0.0207872 0)
(-0.141771 -0.0291954 0)
(-0.138316 -0.037288 0)
(-0.133978 -0.0449574 0)
(-0.128794 -0.0520956 0)
(-0.122811 -0.0585939 0)
(-0.116088 -0.064345 0)
(-0.108694 -0.0692442 0)
(-0.100712 -0.0731912 0)
(-0.0922371 -0.0760926 0)
(-0.0833761 -0.0778642 0)
(-0.0742494 -0.0784339 0)
(-0.0649889 -0.0777448 0)
(-0.0557377 -0.075758 0)
(-0.0466491 -0.072456 0)
(-0.0378848 -0.0678454 0)
(-0.0296128 -0.0619601 0)
(-0.0220064 -0.054863 0)
(-0.0152414 -0.0466484 0)
(-0.0094888 -0.0374427 0)
(-0.00490786 -0.0274042 0)
(-0.0017164 -0.0167213 0)
(-0.000251691 -0.00562174 0)
(-0.000278149 0.00681545 0)
(-0.00185798 0.0198561 0)
(-0.00525918 0.0320711 0)
(-0.0100933 0.0432771 0)
(-0.0161098 0.0533338 0)
(-0.0231307 0.0621335 0)
(-0.030973 0.0695997 0)
(-0.0394556 0.0756849 0)
(-0.0484062 0.0803682 0)
(-0.0576619 0.0836519 0)
(-0.0670698 0.0855585 0)
(-0.0764875 0.0861273 0)
(-0.0857836 0.0854118 0)
(-0.0948375 0.0834767 0)
(-0.103539 0.0803959 0)
(-0.11179 0.0762497 0)
(-0.119502 0.0711239 0)
(-0.126594 0.0651079 0)
(-0.132997 0.0582939 0)
(-0.13865 0.050776 0)
(-0.143499 0.04265 0)
(-0.147501 0.0340131 0)
(-0.150617 0.0249639 0)
(-0.152816 0.0156028 0)
(-0.154076 0.00603162 0)
(-0.154379 -0.00364533 0)
(-0.153717 -0.0133215 0)
(-0.152088 -0.0228877 0)
(-0.149499 -0.032232 0)
(-0.145963 -0.0412398 0)
(-0.141506 -0.0497942 0)
(-0.136161 -0.0577766 0)
(-0.129972 -0.0650673 0)
(-0.122997 -0.0715474 0)
(-0.115303 -0.0770995 0)
(-0.106972 -0.0816105 0)
(-0.098101 -0.0849738 0)
(-0.0887987 -0.0870919 0)
(-0.0791894 -0.0878795 0)
(-0.0694109 -0.0872672 0)
(-0.0596143 -0.0852045 0)
(-0.0499631 -0.0816635 0)
(-0.040631 -0.0766426 0)
(-0.0318007 -0.070169 0)
(-0.0236612 -0.0623016 0)
(-0.0164061 -0.0531331 0)
(-0.0102244 -0.0427914 0)
(-0.00529314 -0.0314384 0)
(-0.00185275 -0.0192691 0)
(-0.00027204 -0.00652084 0)
(-0.00029693 0.00778585 0)
(-0.00198088 0.0225678 0)
(-0.00560245 0.0363209 0)
(-0.0107434 0.048861 0)
(-0.0171325 0.0600501 0)
(-0.0245758 0.0697851 0)
(-0.0328751 0.0779957 0)
(-0.041835 0.0846426 0)
(-0.0512704 0.0897144 0)
(-0.0610079 0.0932237 0)
(-0.0708855 0.0952043 0)
(-0.080754 0.0957071 0)
(-0.0904765 0.0947972 0)
(-0.0999288 0.0925511 0)
(-0.108999 0.0890537 0)
(-0.117587 0.0843966 0)
(-0.125604 0.0786757 0)
(-0.13297 0.0719903 0)
(-0.139619 0.0644417 0)
(-0.145488 0.0561326 0)
(-0.150527 0.0471669 0)
(-0.154692 0.0376492 0)
(-0.157945 0.0276854 0)
(-0.160258 0.0173826 0)
(-0.161605 0.00684972 0)
(-0.161972 -0.0038022 0)
(-0.161345 -0.0144595 0)
(-0.159724 -0.0250055 0)
(-0.15711 -0.0353202 0)
(-0.153517 -0.0452805 0)
(-0.148964 -0.0547599 0)
(-0.143483 -0.0636294 0)
(-0.137115 -0.0717582 0)
(-0.129913 -0.0790147 0)
(-0.121943 -0.0852687 0)
(-0.113287 -0.090393 0)
(-0.104039 -0.0942663 0)
(-0.0943112 -0.096776 0)
(-0.0842304 -0.0978221 0)
(-0.0739401 -0.0973202 0)
(-0.0635992 -0.0952062 0)
(-0.0533813 -0.0914397 0)
(-0.0434731 -0.0860081 0)
(-0.034072 -0.0789303 0)
(-0.0253843 -0.0702594 0)
(-0.0176223 -0.0600854 0)
(-0.0109948 -0.0485365 0)
(-0.00569786 -0.0357786 0)
(-0.00199654 -0.0220139 0)
(-0.000293657 -0.00749052 0)
(-0.000316361 0.00881934 0)
(-0.00210728 0.0254529 0)
(-0.00595439 0.040837 0)
(-0.0114082 0.0547865 0)
(-0.0181753 0.0671662 0)
(-0.0260451 0.0778779 0)
(-0.0348034 0.0868591 0)
(-0.0442395 0.0940803 0)
(-0.0541555 0.0995412 0)
(-0.0643668 0.103267 0)
(-0.0747026 0.105305 0)
(-0.0850067 0.105718 0)
(-0.0951375 0.104587 0)
(-0.104968 0.101999 0)
(-0.114384 0.0980541 0)
(-0.123285 0.0928544 0)
(-0.131584 0.0865074 0)
(-0.139202 0.0791228 0)
(-0.146074 0.0708113 0)
(-0.15214 0.0616844 0)
(-0.157352 0.0518538 0)
(-0.161668 0.0414315 0)
(-0.165051 0.0305301 0)
(-0.167473 0.019263 0)
(-0.16891 0.00774546 0)
(-0.169345 -0.00390534 0)
(-0.168766 -0.0155693 0)
(-0.167168 -0.0271229 0)
(-0.164551 -0.0384388 0)
(-0.160925 -0.0493856 0)
(-0.156305 -0.0598277 0)
(-0.150718 -0.0696259 0)
(-0.144202 -0.0786376 0)
(-0.136806 -0.0867189 0)
(-0.128592 -0.0937254 0)
(-0.119638 -0.0995148 0)
(-0.11004 -0.10395 0)
(-0.0999076 -0.106901 0)
(-0.0893716 -0.108251 0)
(-0.07858 -0.107899 0)
(-0.0676992 -0.105764 0)
(-0.0569131 -0.10179 0)
(-0.0464214 -0.0959523 0)
(-0.0364373 -0.0882582 0)
(-0.0271853 -0.0787533 0)
(-0.0188981 -0.067523 0)
(-0.0118056 -0.0546953 0)
(-0.00612535 -0.0404397 0)
(-0.00214907 -0.024966 0)
(-0.000316781 -0.00853495 0)
(-0.000336578 0.00991795 0)
(-0.00223798 0.0285159 0)
(-0.00631695 0.0456254 0)
(-0.0120908 0.06106 0)
(-0.0192425 0.0746872 0)
(-0.0275437 0.0864151 0)
(-0.0367627 0.0961903 0)
(-0.0466732 0.103995 0)
(-0.0570636 0.109842 0)
(-0.0677378 0.113771 0)
(-0.0785165 0.115844 0)
(-0.0892367 0.116142 0)
(-0.0997525 0.114758 0)
(-0.109934 0.111797 0)
(-0.119667 0.107371 0)
(-0.128852 0.101597 0)
(-0.137403 0.0945927 0)
(-0.145243 0.0864802 0)
(-0.15231 0.0773796 0)
(-0.158549 0.0674112 0)
(-0.163913 0.0566943 0)
(-0.168362 0.0453478 0)
(-0.171863 0.0334906 0)
(-0.174388 0.0212419 0)
(-0.175915 0.00872227 0)
(-0.176425 -0.00394575 0)
(-0.175905 -0.0166364 0)
(-0.174348 -0.0292204 0)
(-0.171752 -0.0415635 0)
(-0.168121 -0.0535268 0)
(-0.163466 -0.0649662 0)
(-0.15781 -0.0757321 0)
(-0.151184 -0.0856709 0)
(-0.143632 -0.0946252 0)
(-0.135212 -0.102436 0)
(-0.125998 -0.108945 0)
(-0.116082 -0.113997 0)
(-0.105574 -0.117444 0)
(-0.0946054 -0.11915 0)
(-0.0833287 -0.118993 0)
(-0.0719171 -0.116874 0)
(-0.0605646 -0.112718 0)
(-0.0494841 -0.106484 0)
(-0.0389055 -0.098167 0)
(-0.0290729 -0.0878008 0)
(-0.0202407 -0.0754655 0)
(-0.0126624 -0.0612872 0)
(-0.00657885 -0.0454386 0)
(-0.00231166 -0.0281377 0)
(-0.000341651 -0.00965898 0)
(-0.000357724 0.0110841 0)
(-0.00237376 0.0317626 0)
(-0.00669211 0.0506936 0)
(-0.0127945 0.067689 0)
(-0.0203385 0.0826192 0)
(-0.0290762 0.0954001 0)
(-0.0387574 0.105989 0)
(-0.049139 0.114381 0)
(-0.0599949 0.120606 0)
(-0.0711179 0.12472 0)
(-0.0823193 0.126804 0)
(-0.0934303 0.126954 0)
(-0.104301 0.125284 0)
(-0.114801 0.121914 0)
(-0.124815 0.116972 0)
(-0.134246 0.11059 0)
(-0.14301 0.102898 0)
(-0.151036 0.0940306 0)
(-0.158264 0.0841172 0)
(-0.164643 0.0732868 0)
(-0.170131 0.0616665 0)
(-0.174692 0.0493816 0)
(-0.178294 0.0365563 0)
(-0.180913 0.0233149 0)
(-0.182527 0.0097822 0)
(-0.183117 -0.00391466 0)
(-0.182668 -0.0176456 0)
(-0.181172 -0.0312761 0)
(-0.178622 -0.0446666 0)
(-0.175018 -0.0576714 0)
(-0.170367 -0.0701382 0)
(-0.164684 -0.081908 0)
(-0.157993 -0.0928158 0)
(-0.150332 -0.102691 0)
(-0.141753 -0.111359 0)
(-0.132324 -0.118645 0)
(-0.122132 -0.124374 0)
(-0.111286 -0.128377 0)
(-0.0999166 -0.130496 0)
(-0.0881784 -0.130587 0)
(-0.0762512 -0.128528 0)
(-0.0643386 -0.124224 0)
(-0.0526673 -0.117612 0)
(-0.0414844 -0.10867 0)
(-0.0310549 -0.0974206 0)
(-0.0216572 -0.083934 0)
(-0.0135703 -0.0683335 0)
(-0.00706161 -0.0507942 0)
(-0.00248565 -0.0315425 0)
(-0.000368513 -0.0108681 0)
(-0.00037996 0.0123206 0)
(-0.00251553 0.0351999 0)
(-0.00708208 0.0560504 0)
(-0.013523 0.0746819 0)
(-0.0214679 0.0909691 0)
(-0.0306476 0.104836 0)
(-0.0407917 0.116253 0)
(-0.0516391 0.125232 0)
(-0.0629487 0.131821 0)
(-0.0745013 0.136095 0)
(-0.0860997 0.138157 0)
(-0.0975694 0.138124 0)
(-0.108758 0.136129 0)
(-0.119533 0.132311 0)
(-0.129783 0.126816 0)
(-0.139413 0.119791 0)
(-0.148344 0.111383 0)
(-0.156509 0.101734 0)
(-0.163855 0.0909868 0)
(-0.170335 0.0792784 0)
(-0.175913 0.0667428 0)
(-0.180557 0.053511 0)
(-0.18424 0.0397122 0)
(-0.186939 0.0254742 0)
(-0.188634 0.0109255 0)
(-0.189307 -0.00380391 0)
(-0.188942 -0.0185806 0)
(-0.187527 -0.0332664 0)
(-0.185053 -0.0477172 0)
(-0.181513 -0.0617818 0)
(-0.176909 -0.0753007 0)
(-0.171247 -0.0881063 0)
(-0.164545 -0.100022 0)
(-0.156832 -0.110865 0)
(-0.148151 -0.120444 0)
(-0.138563 -0.128566 0)
(-0.128148 -0.135035 0)
(-0.117012 -0.139661 0)
(-0.105281 -0.142258 0)
(-0.0931141 -0.142659 0)
(-0.0806941 -0.140714 0)
(-0.0682341 -0.136303 0)
(-0.0559744 -0.129339 0)
(-0.0441802 -0.11978 0)
(-0.0331386 -0.107631 0)
(-0.0231543 -0.0929507 0)
(-0.0145349 -0.0758573 0)
(-0.00757695 -0.0565275 0)
(-0.00267241 -0.0351959 0)
(-0.000397628 -0.0121686 0)
(-0.000403475 0.0136309 0)
(-0.00266432 0.0388355 0)
(-0.00748942 0.0617057 0)
(-0.0142803 0.0820489 0)
(-0.0226358 0.0997441 0)
(-0.0322632 0.114726 0)
(-0.0428698 0.126981 0)
(-0.0541752 0.136538 0)
(-0.0659225 0.143468 0)
(-0.0778801 0.147871 0)
(-0.0898426 0.149872 0)
(-0.101631 0.149612 0)
(-0.11309 0.147248 0)
(-0.124089 0.14294 0)
(-0.134519 0.136852 0)
(-0.144291 0.12915 0)
(-0.15333 0.119994 0)
(-0.161579 0.109541 0)
(-0.168989 0.0979429 0)
(-0.175522 0.085345 0)
(-0.181147 0.0718881 0)
(-0.185839 0.0577083 0)
(-0.189575 0.0429383 0)
(-0.192336 0.0277087 0)
(-0.194103 0.0121499 0)
(-0.194861 -0.00360629 0)
(-0.194591 -0.0194248 0)
(-0.19328 -0.0351653 0)
(-0.190912 -0.0506807 0)
(-0.187478 -0.0658154 0)
(-0.18297 -0.0804043 0)