/*--------------------------------*- C++ -*----------------------------------*\
| =========                 |                                                 |
| \\      /  F ield         | OpenFOAM: The Open Source CFD Toolbox           |
|  \\    /   O peration     | Version:  v2012                                 |
|   \\  /    A nd           | Website:  www.openfoam.com                      |
|    \\/     M anipulation  |                                                 |
\*---------------------------------------------------------------------------*/
FoamFile
{
    version     2.0;
    format      ascii;
    class       surfaceScalarField;
    location    "0.15";
    object      phi;
}
// * * * * * * * * * * * * * * * * * * * * * * * * * * * * * * * * * * * * * //

dimensions      [0 3 -1 0 0 0 0];
oriented        oriented;


internalField   nonuniform List<scalar> 
4900
(
1.17404e-09
-1.18568e-09
2.41077e-09
-1.23683e-09
2.5095e-09
-9.87279e-11
1.03354e-09
1.47598e-09
-2.0972e-09
3.13072e-09
-6.79482e-09
4.69759e-09
-1.28893e-08
6.09452e-09
-2.01735e-08
7.28417e-09
-2.84259e-08
8.2524e-09
-3.7423e-08
8.99718e-09
-4.69463e-08
9.5232e-09
-5.67853e-08
9.83902e-09
-6.67408e-08
9.95546e-09
-7.66256e-08
9.88477e-09
-8.62655e-08
9.63998e-09
-9.55001e-08
9.23461e-09
-1.04183e-07
8.68246e-09
-1.1218e-07
7.99747e-09
-1.19374e-07
7.19369e-09
-1.25659e-07
6.28528e-09
-1.30945e-07
5.28649e-09
-1.35157e-07
4.2118e-09
-1.38233e-07
3.07591e-09
-1.40127e-07
1.89386e-09
-1.40809e-07
6.8113e-10
-1.40262e-07
-5.46469e-10
-1.38489e-07
-1.77267e-09
-1.35509e-07
-2.98053e-09
-1.31356e-07
-4.1528e-09
-1.26084e-07
-5.27177e-09
-1.19765e-07
-6.31941e-09
-1.12487e-07
-7.27748e-09
-1.04359e-07
-8.12769e-09
-9.55075e-08
-8.85199e-09
-8.60748e-08
-9.43272e-09
-7.62219e-08
-9.85293e-09
-6.61252e-08
-1.00967e-08
-5.59757e-08
-1.01495e-08
-4.59771e-08
-9.9986e-09
-3.63436e-08
-9.63348e-09
-2.7297e-08
-9.04656e-09
-1.9063e-08
-8.23404e-09
-1.18656e-08
-7.19738e-09
-5.91968e-09
-5.94589e-09
-1.41775e-09
-4.50193e-09
1.49374e-09
-2.91149e-09
2.75831e-09
-1.26458e-09
2.49182e-09
2.66471e-10
1.17247e-09
1.31936e-09
1.17248e-09
1.24528e-09
-2.43106e-09
1.44154e-09
-1.4331e-09
-1.16391e-09
2.50675e-09
-7.37662e-09
7.68872e-09
-1.74461e-08
1.32002e-08
-3.12643e-08
1.85157e-08
-4.85063e-08
2.33366e-08
-6.87235e-08
2.75014e-08
-9.14011e-08
3.093e-08
-1.15995e-07
3.35908e-08
-1.41953e-07
3.5482e-08
-1.68736e-07
3.66212e-08
-1.95818e-07
3.70379e-08
-2.22703e-07
3.67698e-08
-2.48923e-07
3.58599e-08
-2.74043e-07
3.43548e-08
-2.97664e-07
3.23033e-08
-3.19422e-07
2.97557e-08
-3.38992e-07
2.67638e-08
-3.56087e-07
2.338e-08
-3.70458e-07
1.9658e-08
-3.81898e-07
1.56522e-08
-3.90241e-07
1.14182e-08
-3.9536e-07
7.01295e-09
-3.97174e-07
2.49483e-09
-3.95644e-07
-2.0762e-09
-3.90778e-07
-6.6387e-09
-3.82629e-07
-1.11294e-08
-3.71298e-07
-1.54837e-08
-3.56934e-07
-1.96356e-08
-3.39735e-07
-2.35184e-08
-3.19948e-07
-2.7065e-08
-2.97867e-07
-3.02085e-08
-2.73836e-07
-3.28834e-08
-2.48242e-07
-3.5026e-08
-2.21519e-07
-3.65762e-08
-1.94138e-07
-3.74783e-08
-1.66604e-07
-3.76827e-08
-1.39455e-07
-3.71478e-08
-1.13247e-07
-3.58421e-08
-8.85461e-08
-3.37471e-08
-6.59188e-08
-3.08614e-08
-4.59091e-08
-2.7207e-08
-2.90158e-08
-2.28393e-08
-1.56535e-08
-1.78642e-08
-6.09629e-09
-1.24687e-08
-3.87202e-10
-6.97366e-09
1.79869e-09
-1.91942e-09
1.33123e-09
1.78681e-09
2.50372e-09
1.52548e-10
-2.5836e-09
-2.40396e-09
1.12342e-09
-9.33932e-09
9.44214e-09
-2.14891e-08
1.98385e-08
-3.91187e-08
3.08298e-08
-6.20819e-08
4.14789e-08
-8.99503e-08
5.12049e-08
-1.22113e-07
5.96643e-08
-1.5785e-07
6.66671e-08
-1.96382e-07
7.21223e-08
-2.36904e-07
7.60043e-08
-2.78615e-07
7.83319e-08
-3.20731e-07
7.91536e-08
-3.62499e-07
7.85383e-08
-4.03209e-07
7.65693e-08
-4.42194e-07
7.33396e-08
-4.78839e-07
6.89489e-08
-5.12585e-07
6.3502e-08
-5.42929e-07
5.71075e-08
-5.69426e-07
4.98768e-08
-5.91692e-07
4.19241e-08
-6.09406e-07
3.3366e-08
-6.2231e-07
2.43221e-08
-6.30211e-07
1.49146e-08
-6.32986e-07
5.26898e-09
-6.30576e-07
-4.4861e-09
-6.22996e-07
-1.42188e-08
-6.10331e-07
-2.37939e-08
-5.92741e-07
-3.30736e-08
-5.70459e-07
-4.19177e-08
-5.43793e-07
-5.01849e-08
-5.13124e-07
-5.77334e-08
-4.7891e-07
-6.4423e-08
-4.41677e-07
-7.01164e-08
-4.02021e-07
-7.46819e-08
-3.60602e-07
-7.79954e-08
-3.18136e-07
-7.9944e-08
-2.75389e-07
-8.0429e-08
-2.33167e-07
-7.93701e-08
-1.92298e-07
-7.67109e-08
-1.53621e-07
-7.24249e-08
-1.17957e-07
-6.6525e-08
-8.60879e-08
-5.90762e-08
-5.87119e-08
-5.02153e-08
-3.63944e-08
-4.01817e-08
-1.94967e-08
-2.93664e-08
-8.07943e-09
-1.83909e-08
-1.78187e-09
-8.21701e-09
3.28006e-10
-3.23093e-10
2.83172e-09
-1.37598e-09
-1.20759e-09
-7.51272e-09
7.26016e-09
-1.96748e-08
2.16043e-08
-3.85018e-08
3.86655e-08
-6.41387e-08
5.64666e-08
-9.63375e-08
7.36778e-08
-1.34557e-07
8.94245e-08
-1.7805e-07
1.03157e-07
-2.25934e-07
1.14551e-07
-2.77245e-07
1.23433e-07
-3.30981e-07
1.2974e-07
-3.86132e-07
1.33483e-07
-4.41705e-07
1.34727e-07
-4.9674e-07
1.33573e-07
-5.50321e-07
1.30151e-07
-6.01591e-07
1.2461e-07
-6.49755e-07
1.17113e-07
-6.94085e-07
1.07832e-07
-7.33928e-07
9.69504e-08
-7.68705e-07
8.46538e-08
-7.97917e-07
7.11354e-08
-8.21144e-07
5.65932e-08
-8.38052e-07
4.12301e-08
-8.48391e-07
2.5254e-08
-8.52001e-07
8.87835e-09
-8.48808e-07
-7.67831e-09
-8.38835e-07
-2.41921e-08
-8.22195e-07
-4.0434e-08
-7.99097e-07
-5.61711e-08
-7.69848e-07
-7.11669e-08
-7.3485e-07
-8.51834e-08
-6.946e-07
-9.79833e-08
-6.49691e-07
-1.09332e-07
-6.00806e-07
-1.19001e-07
-5.48715e-07
-1.26773e-07
-4.94267e-07
-1.32444e-07
-4.38381e-07
-1.3583e-07
-3.82037e-07
-1.36773e-07
-3.26259e-07
-1.35149e-07
-2.72095e-07
-1.30875e-07
-2.20598e-07
-1.23921e-07
-1.72796e-07
-1.14327e-07
-1.29654e-07
-1.02218e-07
-9.20317e-08
-8.78382e-08
-6.06244e-08
-7.15889e-08
-3.58967e-08
-5.40941e-08
-1.7996e-08
-3.62916e-08
-6.66079e-09
-1.95522e-08
-1.12734e-09
-5.85656e-09
1.70437e-09
-3.01483e-09
1.80725e-09
-1.30856e-08
1.73309e-08
-3.09219e-08
3.94405e-08
-5.6832e-08
6.45756e-08
-9.07394e-08
9.0374e-08
-1.32232e-07
1.1517e-07
-1.80627e-07
1.3782e-07
-2.35038e-07
1.57568e-07
-2.94436e-07
1.73949e-07
-3.57701e-07
1.86699e-07
-4.23668e-07
1.95707e-07
-4.91155e-07
2.00971e-07
-5.58997e-07
2.02568e-07
-6.2606e-07
2.00636e-07
-6.91264e-07
1.95354e-07
-7.53589e-07
1.86935e-07
-8.12088e-07
1.75612e-07
-8.65896e-07
1.6164e-07
-9.14229e-07
1.45284e-07
-9.56397e-07
1.26821e-07
-9.91801e-07
1.0654e-07
-1.01994e-06
8.47333e-08
-1.04042e-06
6.17055e-08
-1.05293e-06
3.77671e-08
-1.05729e-06
1.32369e-08
-1.05341e-06
-1.15585e-08
-1.04132e-06
-3.62848e-08
-1.02115e-06
-6.06009e-08
-9.9316e-07
-8.41597e-08
-9.57716e-07
-1.0661e-07
-9.15299e-07
-1.276e-07
-8.66505e-07
-1.46778e-07
-8.1204e-07
-1.63797e-07
-7.52717e-07
-1.78324e-07
-6.89451e-07
-1.90039e-07
-6.2325e-07
-1.98645e-07
-5.55202e-07
-2.03877e-07
-4.86463e-07
-2.05512e-07
-4.18237e-07
-2.03375e-07
-3.51755e-07
-1.97357e-07
-2.88248e-07
-1.87428e-07
-2.28914e-07
-1.73661e-07
-1.74879e-07
-1.56253e-07
-1.27148e-07
-1.35569e-07
-8.65559e-08
-1.12181e-07
-5.37002e-08
-8.69498e-08
-2.88805e-08
-6.11113e-08
-1.20362e-08
-3.63965e-08
-2.70373e-09
-1.51891e-08
-9.99369e-10
-4.63077e-09
6.43801e-09
-1.87125e-08
3.14126e-08
-4.23771e-08
6.31052e-08
-7.55345e-08
9.77329e-08
-1.17822e-07
1.32661e-07
-1.68611e-07
1.6596e-07
-2.27045e-07
1.96254e-07
-2.92083e-07
2.22607e-07
-3.62551e-07
2.44416e-07
-4.37184e-07
2.61332e-07
-5.1467e-07
2.73193e-07
-5.93682e-07
2.79983e-07
-6.72908e-07
2.81793e-07
-7.51069e-07
2.78797e-07
-8.26944e-07
2.71229e-07
-8.99379e-07
2.5937e-07
-9.67302e-07
2.43534e-07
-1.02973e-06
2.24064e-07
-1.08576e-06
2.01322e-07
-1.13463e-06
1.75687e-07
-1.17564e-06
1.47552e-07
-1.20823e-06
1.17323e-07
-1.23194e-06
8.54157e-08
-1.24643e-06
5.22594e-08
-1.25149e-06
1.8293e-08
-1.24702e-06
-1.6034e-08
-1.23304e-06
-5.02615e-08
-1.20972e-06
-8.39208e-08
-1.17734e-06
-1.16536e-07
-1.13633e-06
-1.47624e-07
-1.08722e-06
-1.76705e-07
-1.0307e-06
-2.03297e-07
-9.67572e-07
-2.2693e-07
-8.9875e-07
-2.47147e-07
-8.25273e-07
-2.63516e-07
-7.48281e-07
-2.75637e-07
-6.69004e-07
-2.83154e-07
-5.88746e-07
-2.8577e-07
-5.08867e-07
-2.83255e-07
-4.30752e-07
-2.75472e-07
-3.55788e-07
-2.62391e-07
-2.85328e-07
-2.44121e-07
-2.20648e-07
-2.20934e-07
-1.62904e-07
-1.93312e-07
-1.13084e-07
-1.62002e-07
-7.19557e-08
-1.28078e-07
-4.00225e-08
-9.30445e-08
-1.74909e-08
-5.89281e-08
-4.26506e-09
-2.84149e-08
-5.26443e-09
-6.17224e-09
1.26102e-08
-2.41997e-08
4.944e-08
-5.36723e-08
9.25778e-08
-9.40826e-08
1.38143e-07
-1.44746e-07
1.83324e-07
-2.04783e-07
2.25997e-07
-2.73132e-07
2.64603e-07
-3.48582e-07
2.98056e-07
-4.29801e-07
3.25636e-07
-5.15383e-07
3.46914e-07
-6.03878e-07
3.61688e-07
-6.93826e-07
3.69931e-07
-7.83784e-07
3.71752e-07
-8.72352e-07
3.67365e-07
-9.58186e-07
3.57063e-07
-1.04002e-06
3.41203e-07
-1.11667e-06
3.20185e-07
-1.18706e-06
2.94451e-07
-1.2502e-06
2.64466e-07
-1.30523e-06
2.30722e-07
-1.35141e-06
1.93728e-07
-1.3881e-06
1.54012e-07
-1.4148e-06
1.12115e-07
-1.43114e-06
6.8596e-08
-1.43687e-06
2.40252e-08
-1.43189e-06
-2.10117e-08
-1.41623e-06
-6.59169e-08
-1.39007e-06
-1.10081e-07
-1.35372e-06
-1.52885e-07
-1.30764e-06
-1.93706e-07
-1.25243e-06
-2.31917e-07
-1.18883e-06
-2.66898e-07
-1.11772e-06
-2.98039e-07
-1.04012e-06
-3.24752e-07
-9.57152e-07
-3.46479e-07
-8.70082e-07
-3.62707e-07
-7.80256e-07
-3.7298e-07
-6.89108e-07
-3.76918e-07
-5.9813e-07
-3.74233e-07
-5.0885e-07
-3.64752e-07
-4.228e-07
-3.48442e-07
-3.41478e-07
-3.25442e-07
-2.66315e-07
-2.96096e-07
-1.98629e-07
-2.60999e-07
-1.39581e-07
-2.2105e-07
-9.01406e-08
-1.77518e-07
-5.10535e-08
-1.32132e-07
-2.28283e-08
-8.71533e-08
-5.75784e-09
-4.54854e-08
-1.10223e-08
-7.62733e-09
2.02375e-08
-2.94751e-08
7.12878e-08
-6.46463e-08
1.27749e-07
-1.12225e-07
1.85721e-07
-1.7119e-07
2.42289e-07
-2.40388e-07
2.95195e-07
-3.18534e-07
3.42749e-07
-4.04224e-07
3.83745e-07
-4.95961e-07
4.17373e-07
-5.92191e-07
4.43144e-07
-6.91328e-07
4.60825e-07
-7.91787e-07
4.7039e-07
-8.92006e-07
4.71971e-07
-9.90471e-07
4.6583e-07
-1.08574e-06
4.52327e-07
-1.17643e-06
4.319e-07
-1.26129e-06
4.05045e-07
-1.33915e-06
3.72306e-07
-1.40894e-06
3.34264e-07
-1.46975e-06
2.91529e-07
-1.52076e-06
2.44737e-07
-1.56129e-06
1.94546e-07
-1.59081e-06
1.41632e-07
-1.60891e-06
8.66919e-08
-1.61532e-06
3.04389e-08
-1.60994e-06
-2.63964e-08
-1.59278e-06
-8.30678e-08
-1.56405e-06
-1.38815e-07
-1.52407e-06
-1.92867e-07
-1.47333e-06
-2.44447e-07
-1.41247e-06
-2.92773e-07
-1.3423e-06
-3.37074e-07
-1.26374e-06
-3.76592e-07
-1.1779e-06
-4.10593e-07
-1.08599e-06
-4.38386e-07
-9.89369e-07
-4.59333e-07
-8.89481e-07
-4.72868e-07
-7.87879e-07
-4.7852e-07
-6.8618e-07
-4.75932e-07
-5.86043e-07
-4.64888e-07
-4.89141e-07
-4.45344e-07
-3.97123e-07
-4.17461e-07
-3.11578e-07
-3.81641e-07
-2.34e-07
-3.38577e-07
-1.65749e-07
-2.89301e-07
-1.08018e-07
-2.35249e-07
-6.1819e-08
-1.78331e-07
-2.79784e-08
-1.20994e-07
-7.1698e-09
-6.62939e-08
-1.81921e-08
-9.00197e-09
2.92395e-08
-3.45305e-08
9.68162e-08
-7.52568e-08
1.68475e-07
-1.29876e-07
2.40341e-07
-1.97034e-07
3.09447e-07
-2.7529e-07
3.73452e-07
-3.63118e-07
4.30578e-07
-4.58909e-07
4.79535e-07
-5.60989e-07
5.19453e-07
-6.67649e-07
5.49804e-07
-7.77166e-07
5.70342e-07
-8.8783e-07
5.81053e-07
-9.97966e-07
5.82107e-07
-1.10596e-06
5.73822e-07
-1.21027e-06
5.56634e-07
-1.30943e-06
5.31069e-07
-1.40212e-06
4.97726e-07
-1.48707e-06
4.57263e-07
-1.56319e-06
4.1038e-07
-1.62948e-06
3.57816e-07
-1.68508e-06
3.00339e-07
-1.72928e-06
2.38744e-07
-1.7615e-06
1.73852e-07
-1.78131e-06
1.06503e-07
-1.78843e-06
3.75623e-08
-1.78274e-06
-3.20882e-08
-1.76426e-06
-1.01546e-07
-1.73319e-06
-1.69891e-07
-1.68986e-06
-2.36192e-07
-1.6348e-06
-2.99508e-07
-1.56868e-06
-3.58897e-07
-1.49233e-06
-4.13424e-07
-1.40675e-06
-4.62171e-07
-1.31309e-06
-5.04254e-07
-1.21264e-06
-5.38833e-07
-1.10684e-06
-5.65136e-07
-9.97229e-07
-5.82476e-07
-8.8547e-07
-5.90278e-07
-7.73296e-07
-5.88107e-07
-6.62493e-07
-5.7569e-07
-5.54876e-07
-5.52961e-07
-4.52249e-07
-5.20087e-07
-3.56375e-07
-4.77515e-07
-2.68937e-07
-4.26015e-07
-1.91509e-07
-3.66729e-07
-1.2553e-07
-3.01228e-07
-7.22909e-08
-2.3157e-07
-3.29385e-08
-1.60346e-07
-8.50818e-09
-9.07242e-08
-2.67002e-08
-1.03092e-08
3.95487e-08
-3.93889e-08
1.25896e-07
-8.55265e-08
2.14613e-07
-1.47053e-07
3.01868e-07
-2.22284e-07
3.84677e-07
-3.09492e-07
4.6066e-07
-4.06898e-07
5.27983e-07
-5.12676e-07
5.85313e-07
-6.24967e-07
6.31744e-07
-7.41898e-07
6.66735e-07
-8.61605e-07
6.90049e-07
-9.82253e-07
7.01701e-07
-1.10206e-06
7.01913e-07
-1.21931e-06
6.91071e-07
-1.33237e-06
6.69698e-07
-1.43972e-06
6.38418e-07
-1.53994e-06
5.97944e-07
-1.63173e-06
5.49051e-07
-1.71392e-06
4.92569e-07
-1.78547e-06
4.2937e-07
-1.8455e-06
3.60363e-07
-1.89324e-06
2.86486e-07
-1.92809e-06
2.08708e-07
-1.94961e-06
1.28021e-07
-1.95749e-06
4.54438e-08
-1.9516e-06
-3.7981e-08
-1.93196e-06
-1.21189e-07
-1.89875e-06
-2.03097e-07
-1.85234e-06
-2.82605e-07
-1.79324e-06
-3.58601e-07
-1.72217e-06
-4.29974e-07
-1.63997e-06
-4.95618e-07
-1.5477e-06
-5.54447e-07
-1.44654e-06
-6.05412e-07
-1.33786e-06
-6.47516e-07
-1.22315e-06
-6.7984e-07
-1.10406e-06
-7.01564e-07
-9.82344e-07
-7.11997e-07
-8.59843e-07
-7.10607e-07
-7.38478e-07
-6.97055e-07
-6.20209e-07
-6.71231e-07
-5.07003e-07
-6.33293e-07
-4.00807e-07
-5.83712e-07
-3.0351e-07
-5.23312e-07
-2.16917e-07
-4.53322e-07
-1.42725e-07
-3.7542e-07
-8.25119e-08
-2.91783e-07
-3.77413e-08
-2.05117e-07
-9.78849e-09
-1.18677e-07
-3.64887e-08
-1.15641e-08
5.11128e-08
-4.40878e-08
1.5842e-07
-9.55113e-08
2.66036e-07
-1.63823e-07
3.7018e-07
-2.47019e-07
4.67874e-07
-3.43083e-07
5.56723e-07
-4.49977e-07
6.34878e-07
-5.65652e-07
7.00988e-07
-6.88053e-07
7.54145e-07
-8.15137e-07
7.9382e-07
-9.44896e-07
8.19807e-07
-1.07537e-06
8.32172e-07
-1.20466e-06
8.31205e-07
-1.33096e-06
8.17376e-07
-1.45257e-06
7.91305e-07
-1.56788e-06
7.5373e-07
-1.67542e-06
7.05482e-07
-1.77383e-06
6.47466e-07
-1.86191e-06
5.80647e-07
-1.93858e-06
5.06037e-07
-2.00291e-06
4.2469e-07
-2.05411e-06
3.37694e-07
-2.09157e-06
2.46168e-07
-2.11481e-06
1.5126e-07
-2.12352e-06
5.41493e-08
-2.11754e-06
-4.39609e-08
-2.09689e-06
-1.4184e-07
-2.06175e-06
-2.38235e-07
-2.01248e-06
-3.31873e-07
-1.94962e-06
-4.21468e-07
-1.87386e-06
-5.0573e-07
-1.7861e-06
-5.83376e-07
-1.68741e-06
-6.53142e-07
-1.57902e-06
-7.13803e-07
-1.46234e-06
-7.64196e-07
-1.33894e-06
-8.03239e-07
-1.21054e-06
-8.29965e-07
-1.07898e-06
-8.43551e-07
-9.46237e-07
-8.43353e-07
-8.1435e-07
-8.28942e-07
-6.85434e-07
-8.00147e-07
-5.6163e-07
-7.57097e-07
-4.45079e-07
-7.00263e-07
-3.3789e-07
-6.30501e-07
-2.42113e-07
-5.49099e-07
-1.59714e-07
-4.57819e-07
-9.25632e-08
-3.58934e-07
-4.24362e-08
-2.55244e-07
-1.10292e-08
-1.50084e-07
-4.7518e-08
-1.27819e-08
6.38947e-08
-4.86697e-08
1.94307e-07
-1.05283e-07
3.22649e-07
-1.80284e-07
4.45181e-07
-2.71359e-07
5.58948e-07
-3.76201e-07
6.61565e-07
-4.92514e-07
7.51191e-07
-6.18015e-07
8.2649e-07
-7.50449e-07
8.86578e-07
-8.87597e-07
9.30969e-07
-1.0273e-06
9.5951e-07
-1.16747e-06
9.72341e-07
-1.3061e-06
9.69839e-07
-1.4413e-06
9.52576e-07
-1.57129e-06
9.21286e-07
-1.69438e-06
8.76829e-07
-1.80907e-06
8.20169e-07
-1.91395e-06
7.52346e-07
-2.00777e-06
6.7447e-07
-2.08944e-06
5.87699e-07
-2.15798e-06
4.93235e-07
-2.21261e-06
3.92318e-07
-2.25266e-06
2.86224e-07
-2.27766e-06
1.76258e-07
-2.28727e-06
6.37592e-08
-2.28133e-06
-4.99045e-08
-2.25983e-06
-1.63335e-07
-2.22296e-06
-2.75107e-07
-2.17106e-06
-3.83771e-07
-2.10467e-06
-4.87863e-07
-2.02449e-06
-5.85909e-07
-1.93142e-06
-6.7644e-07
-1.82656e-06
-7.58007e-07
-1.71116e-06
-8.29199e-07
-1.58669e-06
-8.88671e-07
-1.45476e-06
-9.35166e-07
-1.31717e-06
-9.67554e-07
-1.17586e-06
-9.84859e-07
-1.03291e-06
-9.86304e-07
-8.90501e-07
-9.71352e-07
-7.50901e-07
-9.39747e-07
-6.16437e-07
-8.91562e-07
-4.89456e-07
-8.27243e-07
-3.72303e-07
-7.47654e-07
-2.67282e-07
-6.5412e-07
-1.7664e-07
-5.48461e-07
-1.02545e-07
-4.33029e-07
-4.70798e-08
-3.10709e-07
-1.22496e-08
-1.84914e-07
-5.97675e-08
-1.39768e-08
7.78715e-08
-5.31772e-08
2.33508e-07
-1.14916e-07
3.84388e-07
-1.96543e-07
5.26808e-07
-2.95437e-07
6.57842e-07
-4.09005e-07
7.75133e-07
-5.34687e-07
8.76873e-07
-6.69963e-07
9.61766e-07
-8.1237e-07
1.02899e-06
-9.59511e-07
1.07811e-06
-1.10907e-06
1.10907e-06
-1.25883e-06
1.1221e-06
-1.40668e-06
1.11769e-06
-1.55064e-06
1.09653e-06
-1.68885e-06
1.05949e-06
-1.81958e-06
1.00756e-06
-1.94127e-06
9.41853e-07
-2.05247e-06
8.63551e-07
-2.15192e-06
7.73915e-07
-2.23847e-06
6.74255e-07
-2.31116e-06
5.65927e-07
-2.36917e-06
4.50327e-07
-2.41183e-06
3.28884e-07
-2.43864e-06
2.03064e-07
-2.44924e-06
7.43656e-08
-2.44347e-06
-5.56785e-08
-2.4213e-06
-1.85502e-07
-2.3829e-06
-3.13508e-07
-2.3286e-06
-4.38069e-07
-2.25893e-06
-5.57539e-07
-2.17458e-06
-6.70255e-07
-2.07647e-06
-7.74556e-07
-1.96567e-06
-8.68799e-07
-1.8435e-06
-9.51378e-07
-1.71141e-06
-1.02075e-06
-1.57111e-06
-1.07547e-06
-1.42444e-06
-1.11422e-06
-1.27344e-06
-1.13586e-06
-1.1203e-06
-1.13945e-06
-9.67331e-07
-1.12432e-06
-8.1698e-07
-1.0901e-06
-6.71759e-07
-1.03678e-06
-5.34238e-07
-9.64764e-07
-4.07005e-07
-8.74888e-07
-2.92635e-07
-7.6849e-07
-1.93664e-07
-6.47432e-07
-1.12565e-07
-5.14128e-07
-5.17305e-08
-3.71543e-07
-1.34682e-08
-2.23176e-07
-7.32357e-08
-1.51615e-08
9.3033e-08
-5.76507e-08
2.75997e-07
-1.24486e-07
4.51223e-07
-2.12708e-07
6.15031e-07
-3.19394e-07
7.64528e-07
-4.41661e-07
8.974e-07
-5.76682e-07
1.01189e-06
-7.21697e-07
1.10678e-06
-8.74028e-07
1.18132e-06
-1.0311e-06
1.23518e-06
-1.19043e-06
1.2684e-06
-1.34968e-06
1.28135e-06
-1.50663e-06
1.27464e-06
-1.6592e-06
1.24911e-06
-1.80548e-06
1.20577e-06
-1.9437e-06
1.14578e-06
-2.07223e-06
1.07038e-06
-2.18961e-06
9.80938e-07
-2.29456e-06
8.78856e-07
-2.38591e-06
7.65607e-07
-2.46268e-06
6.42701e-07
-2.52404e-06
5.1169e-07
-2.56932e-06
3.7416e-07
-2.59799e-06
2.31734e-07
-2.60969e-06
8.60693e-08
-2.60423e-06
-6.1139e-08
-2.58158e-06
-2.08159e-07
-2.54186e-06
-3.53221e-07
-2.48541e-06
-4.94522e-07
-2.41272e-06
-6.3023e-07
-2.32448e-06
-7.58493e-07
-2.22159e-06
-8.77452e-07
-2.10513e-06
-9.85261e-07
-1.9764e-06
-1.08011e-06
-1.83691e-06
-1.16023e-06
-1.68839e-06
-1.22399e-06
-1.53276e-06
-1.26986e-06
-1.37212e-06
-1.29649e-06
-1.20879e-06
-1.30278e-06
-1.04523e-06
-1.28788e-06
-8.8404e-07
-1.25129e-06
-7.27941e-07
-1.19288e-06
-5.79733e-07
-1.11297e-06
-4.42262e-07
-1.01236e-06
-3.18387e-07
-8.92364e-07
-2.10949e-07
-7.5487e-07
-1.22732e-07
-6.02345e-07
-5.64458e-08
-4.37829e-07
-1.47026e-08
-2.6492e-07
-8.79383e-08
-1.63475e-08
1.09381e-07
-6.21276e-08
3.21777e-07
-1.34062e-07
5.23157e-07
-2.28883e-07
7.09853e-07
-3.43363e-07
8.79008e-07
-4.74327e-07
1.02836e-06
-6.18676e-07
1.15624e-06
-7.73404e-07
1.26151e-06
-9.35616e-07
1.34353e-06
-1.10254e-06
1.4021e-06
-1.27156e-06
1.43741e-06
-1.44017e-06
1.44997e-06
-1.60608e-06
1.44055e-06
-1.76712e-06
1.41015e-06
-1.92131e-06
1.35996e-06
-2.06682e-06
1.29129e-06
-2.20203e-06
1.20558e-06
-2.32543e-06
1.10434e-06
-2.43573e-06
9.89152e-07
-2.53176e-06
8.61639e-07
-2.61253e-06
7.23475e-07
-2.67721e-06
5.76368e-07
-2.72511e-06
4.22059e-07
-2.7557e-06
2.62324e-07
-2.76861e-06
9.89761e-08
-2.76362e-06
-6.61315e-08
-2.74067e-06
-2.31105e-07
-2.69988e-06
-3.94006e-07
-2.64155e-06
-5.52857e-07
-2.56614e-06
-7.05642e-07
-2.47431e-06
-8.50317e-07
-2.36694e-06
-9.84821e-07
-2.24511e-06
-1.1071e-06
-2.1101e-06
-1.21511e-06
-1.96346e-06
-1.30688e-06
-1.80691e-06
-1.38054e-06
-1.64244e-06
-1.43433e-06
-1.47225e-06
-1.46668e-06
-1.29876e-06
-1.47628e-06
-1.12456e-06
-1.46208e-06
-9.52432e-07
-1.42341e-06
-7.85314e-07
-1.36e-06
-6.26242e-07
-1.27204e-06
-4.78337e-07
-1.16026e-06
-3.44756e-07
-1.02594e-06
-2.28656e-07
-8.7097e-07
-1.33152e-07
-6.97849e-07
-6.12809e-08
-5.09701e-07
-1.59695e-08
-3.10231e-07
-1.03908e-07
-1.75451e-08
1.26926e-07
-6.6642e-08
3.70873e-07
-1.43709e-07
6.00224e-07
-2.45165e-07
8.11309e-07
-3.67471e-07
1.00131e-06
-5.07152e-07
1.16805e-06
-6.60831e-07
1.30992e-06
-8.25252e-07
1.42593e-06
-9.97295e-07
1.51557e-06
-1.174e-06
1.57881e-06
-1.35258e-06
1.61599e-06
-1.53043e-06
1.62782e-06
-1.70512e-06
1.61524e-06
-1.87442e-06
1.57946e-06
-2.0363e-06
1.52184e-06
-2.18891e-06
1.4439e-06
-2.33056e-06
1.34724e-06
-2.45979e-06
1.23357e-06
-2.57526e-06
1.10462e-06
-2.67582e-06
9.62203e-07
-2.76049e-06
8.08143e-07
-2.82842e-06
6.44302e-07
-2.87894e-06
4.72574e-07
-2.9115e-06
2.94883e-07
-2.92571e-06
1.13193e-07
-2.92135e-06
-7.0492e-08
-2.89833e-06
-2.54122e-07
-2.85674e-06
-4.35598e-07
-2.79683e-06
-6.1277e-07
-2.71903e-06
-7.83441e-07
-2.62397e-06
-9.45374e-07
-2.51249e-06
-1.0963e-06
-2.38563e-06
-1.23395e-06
-2.24468e-06
-1.35606e-06
-2.09116e-06
-1.46041e-06
-1.92683e-06
-1.54487e-06
-1.75372e-06
-1.60744e-06
-1.5741e-06
-1.6463e-06
-1.39049e-06
-1.65989e-06
-1.20562e-06
-1.64694e-06
-1.02248e-06
-1.60656e-06
-8.44188e-07
-1.53829e-06
-6.74055e-07
-1.44218e-06
-5.15484e-07
-1.31883e-06
-3.71949e-07
-1.16948e-06
-2.46943e-07
-9.95976e-07
-1.43928e-07
-8.00864e-07
-6.62886e-08
-5.87341e-07
-1.72844e-08
-3.59235e-07
-1.21192e-07
-1.87634e-08
1.45689e-07
-7.12246e-08
4.23335e-07
-1.53486e-07
6.82485e-07
-2.61643e-07
9.19466e-07
-3.91831e-07
1.1315e-06
-5.40269e-07
1.31648e-06
-7.03292e-07
1.47294e-06
-8.77383e-07
1.60002e-06
-1.0592e-06
1.69739e-06
-1.24558e-06
1.76519e-06
-1.43358e-06
1.80399e-06
-1.62046e-06
1.8147e-06
-1.80371e-06
1.79849e-06
-1.98103e-06
1.75678e-06
-2.15034e-06
1.69114e-06
-2.30974e-06
1.6033e-06
-2.45758e-06
1.49508e-06
-2.59235e-06
1.36834e-06
-2.71276e-06
1.22503e-06
-2.81766e-06
1.0671e-06
-2.90607e-06
8.96552e-07
-2.97716e-06
7.15396e-07
-3.03026e-06
5.25672e-07
-3.06482e-06
3.29446e-07
-3.08045e-06
1.28824e-07
-3.0769e-06
-7.40486e-08
-3.05404e-06
-2.76974e-07
-3.01194e-06
-4.777e-07
-2.9508e-06
-6.73912e-07
-2.871e-06
-8.63237e-07
-2.77313e-06
-1.04325e-06
-2.65797e-06
-1.21147e-06
-2.52651e-06
-1.36541e-06
-2.38002e-06
-1.50255e-06
-2.21999e-06
-1.62043e-06
-2.04821e-06
-1.71665e-06
-1.86671e-06
-1.78894e-06
-1.67783e-06
-1.83518e-06
-1.4842e-06
-1.85353e-06
-1.28869e-06
-1.84245e-06
-1.09445e-06
-1.8008e-06
-9.04842e-07
-1.72789e-06
-7.23436e-07
-1.62358e-06
-5.53941e-07
-1.48833e-06
-4.00164e-07
-1.32326e-06
-2.65958e-07
-1.13018e-06
-1.55158e-07
-9.11665e-07
-7.15191e-08
-6.70979e-07
-1.8662e-08
-4.12092e-07
-1.39854e-07
-2.00108e-08
1.657e-07
-7.59042e-08
4.79228e-07
-1.63449e-07
7.7003e-07
-2.78398e-07
1.03441e-06
-4.16549e-07
1.26965e-06
-5.73798e-07
1.47373e-06
-7.4618e-07
1.64533e-06
-9.29911e-07
1.78375e-06
-1.12141e-06
1.88888e-06
-1.31732e-06
1.96111e-06
-1.51455e-06
2.00122e-06
-1.71022e-06
2.01037e-06
-1.90174e-06
1.99001e-06
-2.08675e-06
1.94178e-06
-2.26312e-06
1.86751e-06
-2.42897e-06
1.76915e-06
-2.58262e-06
1.64873e-06
-2.72261e-06
1.50833e-06
-2.84764e-06
1.35006e-06
-2.9566e-06
1.17606e-06
-3.04854e-06
9.88492e-07
-3.12265e-06
7.89506e-07
-3.17826e-06
5.81283e-07
-3.21484e-06
3.66024e-07
-3.23198e-06
1.45962e-07
-3.2294e-06
-7.66237e-08
-3.20697e-06
-2.99403e-07
-3.1647e-06
-5.19978e-07
-3.10272e-06
-7.35884e-07
-3.02138e-06
-9.44577e-07
-2.92119e-06
-1.14344e-06
-2.80285e-06
-1.32981e-06
-2.66732e-06
-1.50093e-06
-2.5158e-06
-1.65408e-06
-2.34974e-06
-1.78649e-06
-2.17091e-06
-1.89548e-06
-1.98137e-06
-1.97847e-06
-1.78351e-06
-2.03304e-06
-1.58002e-06
-2.05702e-06
-1.37393e-06
-2.04854e-06
-1.16856e-06
-2.00617e-06
-9.67515e-07
-1.92894e-06
-7.74626e-07
-1.81647e-06
-5.93927e-07
-1.66903e-06
-4.29587e-07
-1.4876e-06
-2.85843e-07
-1.27393e-06
-1.66934e-07
-1.03057e-06
-7.70203e-08
-7.60893e-07
-2.01164e-08
-4.68996e-07
-1.5997e-07
-2.12953e-08
1.86995e-07
-8.0708e-08
5.38641e-07
-1.7365e-07
8.62972e-07
-2.95508e-07
1.15627e-06
-4.41722e-07
1.41587e-06
-6.07845e-07
1.63986e-06
-7.896e-07
1.82708e-06
-9.8292e-07
1.97707e-06
-1.18398e-06
2.08995e-06
-1.38924e-06
2.16636e-06
-1.59543e-06
2.2074e-06
-1.79956e-06
2.21451e-06
-1.99897e-06
2.18941e-06
-2.19123e-06
2.13404e-06
-2.37421e-06
2.0505e-06
-2.54604e-06
1.94098e-06
-2.70504e-06
1.80774e-06
-2.84979e-06
1.65308e-06
-2.97904e-06
1.47931e-06
-3.09172e-06
1.28874e-06
-3.1869e-06
1.08368e-06
-3.26382e-06
8.66424e-07
-3.32183e-06
6.39289e-07
-3.3604e-06
4.04593e-07
-3.37912e-06
1.64687e-07
-3.37771e-06
-7.80375e-08
-3.35598e-06
-3.21128e-07
-3.3139e-06
-5.62062e-07
-3.25155e-06
-7.98231e-07
-3.16919e-06
-1.02694e-06
-3.06725e-06
-1.24538e-06
-2.94637e-06
-1.45069e-06
-2.8074e-06
-1.6399e-06
-2.65146e-06
-1.81001e-06
-2.47997e-06
-1.95798e-06
-2.29464e-06
-2.08081e-06
-2.09753e-06
-2.17558e-06
-1.89105e-06
-2.23952e-06
-1.67798e-06
-2.27009e-06
-1.46146e-06
-2.26506e-06
-1.24499e-06
-2.22264e-06
-1.0324e-06
-2.14153e-06
-8.27829e-07
-2.02104e-06
-6.35641e-07
-1.86122e-06
-4.6039e-07
-1.66285e-06
-3.06732e-07
-1.42758e-06
-1.79346e-07
-1.15796e-06
-8.28386e-08
-8.574e-07
-2.16612e-08
-5.30173e-07
-1.81632e-07
-2.26247e-08
2.0962e-07
-8.56627e-08
6.01679e-07
-1.84139e-07
9.61448e-07
-3.13047e-07
1.28518e-06
-4.6744e-07
1.57026e-06
-6.42507e-07
1.81492e-06
-8.33637e-07
2.01821e-06
-1.03647e-06
2.1799e-06
-1.24693e-06
2.30041e-06
-1.46127e-06
2.38071e-06
-1.67608e-06
2.4222e-06
-1.88825e-06
2.42668e-06
-2.09504e-06
2.3962e-06
-2.29401e-06
2.33302e-06
-2.48303e-06
2.23951e-06
-2.66022e-06
2.11817e-06
-2.82399e-06
1.9715e-06
-2.97294e-06
1.80203e-06
-3.10588e-06
1.61225e-06
-3.22181e-06
1.40467e-06
-3.31985e-06
1.18172e-06
-3.39929e-06
9.45864e-07
-3.45952e-06
6.9951e-07
-3.50001e-06
4.4509e-07
-3.52038e-06
1.85052e-07
-3.5203e-06
-7.81132e-08
-3.49958e-06
-3.41854e-07
-3.4581e-06
-6.03539e-07
-3.3959e-06
-8.60435e-07
-3.31313e-06
-1.1097e-06
-3.21013e-06
-1.34838e-06
-3.08743e-06
-1.57339e-06
-2.94579e-06
-1.78155e-06
-2.78621e-06
-1.96959e-06
-2.61003e-06
-2.13416e-06
-2.4189e-06
-2.27195e-06
-2.21483e-06
-2.37965e-06
-2.00024e-06
-2.45411e-06
-1.77797e-06
-2.49236e-06
-1.55127e-06
-2.49176e-06
-1.3238e-06
-2.4501e-06
-1.09964e-06
-2.36568e-06
-8.83219e-07
-2.23747e-06
-6.7926e-07
-2.06518e-06
-4.92733e-07
-1.84937e-06
-3.28753e-07
-1.59156e-06
-1.9248e-07
-1.29423e-06
-8.90196e-08
-9.60861e-07
-2.331e-08
-5.95883e-07
-2.04942e-07
-2.40072e-08
2.33627e-07
-9.07963e-08
6.68468e-07
-1.9497e-07
1.06562e-06
-3.3109e-07
1.4213e-06
-4.93793e-07
1.73296e-06
-6.77874e-07
1.999e-06
-8.78363e-07
2.2187e-06
-1.09059e-06
2.39213e-06
-1.31022e-06
2.52005e-06
-1.53331e-06
2.60379e-06
-1.75628e-06
2.64517e-06
-1.97594e-06
2.64635e-06
-2.18949e-06
2.60975e-06
-2.39447e-06
2.538e-06
-2.58878e-06
2.43382e-06
-2.7706e-06
2.29999e-06
-2.93838e-06
2.13928e-06
-3.0908e-06
1.95445e-06
-3.22678e-06
1.74823e-06
-3.34537e-06
1.52325e-06
-3.44579e-06
1.28214e-06
-3.52736e-06
1.02744e-06
-3.58954e-06
7.6169e-07
-3.63185e-06
4.87393e-07
-3.65388e-06
2.07081e-07
-3.65531e-06
-7.66817e-08
-3.6359e-06
-3.61266e-07
-3.59548e-06
-6.43954e-07
-3.534e-06
-9.21912e-07
-3.45153e-06
-1.19218e-06
-3.34827e-06
-1.45164e-06
-3.22463e-06
-1.69703e-06
-3.08123e-06
-1.92495e-06
-2.91896e-06
-2.13186e-06
-2.73901e-06
-2.31411e-06
-2.54294e-06
-2.46802e-06
-2.33271e-06
-2.58989e-06
-2.1107e-06
-2.67612e-06
-1.87977e-06
-2.72328e-06
-1.64327e-06
-2.72827e-06
-1.40502e-06
-2.68835e-06
-1.16933e-06
-2.60138e-06
-9.40931e-07
-2.46587e-06
-7.24938e-07
-2.28117e-06
-5.26766e-07
-2.04755e-06
-3.52029e-07
-1.7663e-06
-2.06423e-07
-1.43984e-06
-9.56091e-08
-1.07168e-06
-2.50766e-08
-6.66416e-07
-2.30018e-07
-2.54521e-08
2.59079e-07
-9.61398e-08
7.39155e-07
-2.06199e-07
1.17568e-06
-3.4972e-07
1.56482e-06
-5.20876e-07
1.90412e-06
-7.14034e-07
2.19216e-06
-9.23839e-07
2.42851e-06
-1.14529e-06
2.61358e-06
-1.37379e-06
2.74855e-06
-1.60517e-06
2.83518e-06
-1.83573e-06
2.87572e-06
-2.06218e-06
2.8728e-06
-2.2817e-06
2.82927e-06
-2.49183e-06
2.74814e-06
-2.69052e-06
2.63251e-06
-2.87602e-06
2.48549e-06
-3.04687e-06
2.31014e-06
-3.20189e-06
2.10947e-06
-3.34007e-06
1.88641e-06
-3.46058e-06
1.64377e-06
-3.56274e-06
1.3843e-06
-3.64597e-06
1.11067e-06
-3.70976e-06
8.25479e-07
-3.75368e-06
5.31314e-07
-3.77735e-06
2.30753e-07
-3.78044e-06
-7.35897e-08
-3.76267e-06
-3.79037e-07
-3.72381e-06
-6.82811e-07
-3.66372e-06
-9.82006e-07
-3.58234e-06
-1.27356e-06
-3.47974e-06
-1.55423e-06
-3.35619e-06
-1.82059e-06
-3.21213e-06
-2.06901e-06
-3.04828e-06
-2.2957e-06
-2.86569e-06
-2.4967e-06
-2.66578e-06
-2.66793e-06
-2.45039e-06
-2.80528e-06
-2.22184e-06
-2.90466e-06
-1.98299e-06
-2.96214e-06
-1.73724e-06
-2.97402e-06
-1.48856e-06
-2.93703e-06
-1.24148e-06
-2.84845e-06
-1.00106e-06
-2.70629e-06
-7.72809e-07
-2.50942e-06
-5.62628e-07
-2.25773e-06
-3.7668e-07
-1.95225e-06
-2.21261e-07
-1.59526e-06
-1.02654e-07
-1.19028e-06
-2.69751e-08
-7.42094e-07
-2.56993e-07
-2.69699e-08
2.86049e-07
-1.01729e-07
8.13914e-07
-2.17893e-07
1.29185e-06
-3.69027e-07
1.71596e-06
-5.48792e-07
2.08388e-06
-7.51082e-07
2.39445e-06
-9.70125e-07
2.64755e-06
-1.20057e-06
2.84402e-06
-1.43753e-06
2.98551e-06
-1.67663e-06
3.07429e-06
-1.91405e-06
3.11313e-06
-2.14642e-06
3.10517e-06
-2.37091e-06
3.05376e-06
-2.58512e-06
2.96234e-06
-2.78705e-06
2.83444e-06
-2.97508e-06
2.67352e-06
-3.14788e-06
2.48294e-06
-3.3044e-06
2.26599e-06
-3.44377e-06
2.02577e-06
-3.56529e-06
1.7653e-06
-3.66842e-06
1.48743e-06
-3.75266e-06
1.19491e-06
-3.8176e-06
8.90422e-07
-3.86287e-06
5.76583e-07
-3.88811e-06
2.55996e-07
-3.893e-06
-6.87073e-08
-3.8772e-06
-3.94833e-07
-3.84044e-06
-7.19577e-07
-3.78245e-06
-1.03999e-06
-3.70307e-06
-1.35294e-06
-3.6022e-06
-1.6551e-06
-3.47992e-06
-1.94287e-06
-3.33648e-06
-2.21245e-06
-3.17241e-06
-2.45977e-06
-2.98855e-06
-2.68056e-06
-2.78612e-06
-2.87036e-06
-2.56682e-06
-3.02458e-06
-2.33286e-06
-3.13862e-06
-2.08705e-06
-3.20795e-06
-1.83281e-06
-3.22826e-06
-1.57423e-06
-3.19561e-06
-1.31605e-06
-3.10663e-06
-1.06366e-06
-2.95869e-06
-8.22982e-07
-2.75009e-06
-6.00449e-07
-2.48026e-06
-4.02827e-07
-2.14987e-06
-2.37083e-07
-1.761e-06
-1.10204e-07
-1.31716e-06
-2.9021e-08
-8.23277e-07
-2.86014e-07
-2.85736e-08
3.14623e-07
-1.07606e-07
8.92947e-07
-2.30132e-07
1.41437e-06
-3.89119e-07
1.87494e-06
-5.77661e-07
2.27243e-06
-7.89125e-07
2.60592e-06
-1.01728e-06
2.8757e-06
-1.25639e-06
3.08313e-06
-1.50128e-06
3.2304e-06
-1.74739e-06
3.32039e-06
-1.99074e-06
3.35649e-06
-2.22796e-06
3.34239e-06
-2.4562e-06
3.282e-06
-2.67317e-06
3.17931e-06
-2.87697e-06
3.03825e-06