/*--------------------------------*- C++ -*----------------------------------*\
| =========                 |                                                 |
| \\      /  F ield         | OpenFOAM: The Open Source CFD Toolbox           |
|  \\    /   O peration     | Version:  v2012                                 |
|   \\  /    A nd           | Website:  www.openfoam.com                      |
|    \\/     M anipulation  |                                                 |
\*---------------------------------------------------------------------------*/
FoamFile
{
    version     2.0;
    format      ascii;
    class       volVectorField;
    location    "0.15";
    object      U;
}
// * * * * * * * * * * * * * * * * * * * * * * * * * * * * * * * * * * * * * //

dimensions      [0 1 -1 0 0 0 0];


internalField   nonuniform List<vector> 
2500
(
(3.25399e-05 -3.27767e-05 0)
(9.84245e-05 -4.06314e-05 0)
(0.000136853 -2.09149e-05 0)
(0.0001058 7.86032e-06 0)
(-8.96166e-06 3.76706e-05 0)
(-0.000205871 6.52225e-05 0)
(-0.000477601 8.92092e-05 0)
(-0.000814352 0.000109219 0)
(-0.00120521 0.000125228 0)
(-0.00163893 0.000137375 0)
(-0.00210438 0.000145865 0)
(-0.0025908 0.000150928 0)
(-0.00308791 0.000152804 0)
(-0.00358602 0.000151735 0)
(-0.00407611 0.000147958 0)
(-0.00454979 0.000141707 0)
(-0.00499937 0.000133209 0)
(-0.00541786 0.000122688 0)
(-0.00579896 0.000110365 0)
(-0.00613709 9.64552e-05 0)
(-0.00642737 8.11754e-05 0)
(-0.00666564 6.47422e-05 0)
(-0.00684846 4.73747e-05 0)
(-0.00697316 2.92969e-05 0)
(-0.00703781 1.07391e-05 0)
(-0.00704125 -8.06293e-06 0)
(-0.00698314 -2.68653e-05 0)
(-0.00686398 -4.5412e-05 0)
(-0.00668511 -6.34411e-05 0)
(-0.00644875 -8.06817e-05 0)
(-0.00615802 -9.68549e-05 0)
(-0.00581692 -0.000111676 0)
(-0.00543041 -0.000124859 0)
(-0.00500433 -0.000136114 0)
(-0.00454543 -0.000145156 0)
(-0.00406131 -0.000151708 0)
(-0.00356043 -0.0001555 0)
(-0.00305198 -0.000156278 0)
(-0.00254587 -0.000153808 0)
(-0.00205257 -0.000147877 0)
(-0.00158303 -0.000138301 0)
(-0.00114849 -0.000124933 0)
(-0.000760298 -0.000107679 0)
(-0.000429548 -8.65363e-05 0)
(-0.000166627 -6.16865e-05 0)
(1.96209e-05 -3.37164e-05 0)
(0.000123266 -4.10371e-06 0)
(0.000144483 2.37069e-05 0)
(9.957e-05 4.1664e-05 0)
(3.20533e-05 3.19866e-05 0)
(4.09299e-05 -9.90273e-05 0)
(9.35346e-05 -9.2758e-05 0)
(4.51048e-05 1.45402e-05 0)
(-0.000168751 0.000161576 0)
(-0.000574921 0.000317711 0)
(-0.00117474 0.000466984 0)
(-0.00195585 0.000601093 0)
(-0.00289808 0.000715989 0)
(-0.00397679 0.000809935 0)
(-0.00516516 0.000882473 0)
(-0.00643556 0.000933874 0)
(-0.00776053 0.000964849 0)
(-0.00911334 0.000976372 0)
(-0.0104684 0.000969582 0)
(-0.0118015 0.000945718 0)
(-0.0130901 0.00090608 0)
(-0.0143133 0.000852005 0)
(-0.015452 0.000784856 0)
(-0.0164889 0.000706008 0)
(-0.0174088 0.000616854 0)
(-0.0181983 0.000518802 0)
(-0.0188458 0.000413277 0)
(-0.0193422 0.000301735 0)
(-0.01968 0.000185662 0)
(-0.019854 6.65823e-05 0)
(-0.0198613 -5.39369e-05 0)
(-0.019701 -0.000174289 0)
(-0.0193747 -0.000292808 0)
(-0.0188862 -0.000407796 0)
(-0.0182417 -0.000517511 0)
(-0.0174499 -0.000620183 0)
(-0.0165219 -0.000714025 0)
(-0.0154713 -0.000797252 0)
(-0.0143141 -0.000868099 0)
(-0.0130684 -0.000924849 0)
(-0.011755 -0.000965858 0)
(-0.0103965 -0.000989589 0)
(-0.00901728 -0.00099465 0)
(-0.0076436 -0.000979834 0)
(-0.00630286 -0.000944172 0)
(-0.0050233 -0.000887003 0)
(-0.00383343 -0.000808069 0)
(-0.00276125 -0.00070768 0)
(-0.00183323 -0.000586985 0)
(-0.00107272 -0.000448479 0)
(-0.000497792 -0.000296991 0)
(-0.000117801 -0.000141516 0)
(7.20519e-05 1.4912e-06 0)
(0.000102621 0.000101531 0)
(4.20462e-05 9.95816e-05 0)
(2.23988e-05 -0.00013892 0)
(-1.01711e-05 -4.55116e-05 0)
(-0.00023384 0.00023927 0)
(-0.000704769 0.000608102 0)
(-0.00144871 0.00100072 0)
(-0.00246718 0.00138088 0)
(-0.00374442 0.0017271 0)
(-0.0052534 0.0020273 0)
(-0.00696013 0.00227516 0)
(-0.00882657 0.00246794 0)
(-0.0108128 0.00260517 0)
(-0.0128784 0.00268783 0)
(-0.0149835 0.00271791 0)
(-0.0170896 0.002698 0)
(-0.01916 0.00263116 0)
(-0.0211603 0.00252071 0)
(-0.0230583 0.00237018 0)
(-0.0248246 0.00218325 0)
(-0.0264327 0.00196368 0)
(-0.0278589 0.00171533 0)
(-0.0290823 0.00144213 0)
(-0.0300854 0.00114808 0)
(-0.0308536 0.000837299 0)
(-0.0313757 0.000513963 0)
(-0.0316437 0.000182374 0)
(-0.031653 -0.000153052 0)
(-0.0314027 -0.000487791 0)
(-0.030895 -0.000817196 0)
(-0.0301363 -0.00113652 0)
(-0.0291361 -0.00144093 0)
(-0.0279081 -0.00172553 0)
(-0.0264696 -0.00198542 0)
(-0.0248415 -0.00221571 0)
(-0.0230484 -0.00241163 0)
(-0.0211184 -0.00256857 0)
(-0.019083 -0.00268214 0)
(-0.0169768 -0.00274836 0)
(-0.0148368 -0.00276366 0)
(-0.0127026 -0.00272512 0)
(-0.010615 -0.00263057 0)
(-0.00861617 -0.00247883 0)
(-0.00674779 -0.00227006 0)
(-0.00505038 -0.00200617 0)
(-0.00356145 -0.00169156 0)
(-0.00231334 -0.00133438 0)
(-0.00133023 -0.000948463 0)
(-0.00062403 -0.000556798 0)
(-0.000188703 -0.000196547 0)
(6.93726e-06 7.23983e-05 0)
(2.52759e-05 0.000146083 0)
(-4.9245e-06 -0.000111903 0)
(-0.000153643 0.000164427 0)
(-0.000598978 0.000709037 0)
(-0.00137059 0.00137723 0)
(-0.00248313 0.00208113 0)
(-0.00393397 0.00276351 0)
(-0.00570252 0.00338785 0)
(-0.0077555 0.00393193 0)
(-0.0100514 0.00438304 0)
(-0.0125434 0.00473481 0)
(-0.0151821 0.00498512 0)
(-0.0179167 0.00513482 0)
(-0.0206969 0.00518676 0)
(-0.0234737 0.00514522 0)
(-0.0262 0.00501543 0)
(-0.0288316 0.00480336 0)
(-0.0313268 0.00451543 0)
(-0.0336478 0.00415843 0)
(-0.0357597 0.00373942 0)
(-0.0376319 0.0032657 0)
(-0.0392373 0.00274471 0)
(-0.0405529 0.00218411 0)
(-0.0415599 0.00159173 0)
(-0.0422436 0.0009756 0)
(-0.0425938 0.000343939 0)
(-0.0426045 -0.000294811 0)
(-0.0422746 -0.000932007 0)
(-0.0416072 -0.0015588 0)
(-0.0406106 -0.00216617 0)
(-0.0392975 -0.00274495 0)
(-0.0376858 -0.00328592 0)
(-0.0357978 -0.00377983 0)
(-0.0336609 -0.00421755 0)
(-0.0313071 -0.00459018 0)
(-0.0287727 -0.00488915 0)
(-0.0260982 -0.00510647 0)
(-0.0233281 -0.00523487 0)
(-0.02051 -0.00526803 0)
(-0.0176941 -0.0052009 0)
(-0.0149325 -0.00503001 0)
(-0.0122782 -0.00475392 0)
(-0.00978334 -0.00437378 0)
(-0.00749841 -0.00389421 0)
(-0.00546958 -0.00332448 0)
(-0.00373653 -0.0026804 0)
(-0.00232929 -0.00198717 0)
(-0.001264 -0.00128386 0)
(-0.000537954 -0.000629224 0)
(-0.000129654 -0.000110964 0)
(-6.21983e-07 0.000129811 0)
(-3.36334e-05 -3.13789e-06 0)
(-0.000309418 0.000566926 0)
(-0.000998187 0.00145545 0)
(-0.00209351 0.00249241 0)
(-0.00359238 0.0035678 0)
(-0.00548414 0.00460587 0)
(-0.00774119 0.00555567 0)
(-0.0103233 0.00638448 0)
(-0.013182 0.00707242 0)
(-0.0162628 0.00760869 0)
(-0.0195082 0.00798895 0)
(-0.0228591 0.00821346 0)
(-0.0262566 0.0082858 0)
(-0.029643 0.00821192 0)
(-0.0329628 0.00799951 0)
(-0.0361632 0.0076575 0)
(-0.0391951 0.00719574 0)
(-0.042013 0.00662475 0)
(-0.0445756 0.00595557 0)
(-0.0468461 0.00519967 0)
(-0.0487923 0.00436885 0)
(-0.0503865 0.00347526 0)
(-0.0516062 0.00253136 0)
(-0.0524339 0.00154993 0)
(-0.0528574 0.000544062 0)
(-0.0528698 -0.000472813 0)
(-0.0524694 -0.00148695 0)
(-0.0516605 -0.00248431 0)
(-0.0504528 -0.00345061 0)
(-0.0488617 -0.00437136 0)
(-0.0469085 -0.00523201 0)
(-0.0446201 -0.00601805 0)
(-0.0420292 -0.00671516 0)
(-0.0391738 -0.00730944 0)
(-0.0360971 -0.00778763 0)
(-0.0328475 -0.00813738 0)
(-0.0294773 -0.0083476 0)
(-0.026043 -0.00840881 0)
(-0.0226037 -0.00831361 0)
(-0.0192207 -0.00805722 0)
(-0.0159558 -0.00763815 0)
(-0.0128703 -0.00705909 0)
(-0.0100228 -0.0063281 0)
(-0.00746713 -0.00546026 0)
(-0.00525005 -0.00447995 0)
(-0.00340829 -0.00342436 0)
(-0.00196456 -0.00234823 0)
(-0.000923405 -0.00132985 0)
(-0.000279552 -0.000479736 0)
(-2.81489e-05 3.51406e-05 0)
(-6.10261e-05 0.000188242 0)
(-0.00046475 0.00117061 0)
(-0.00140348 0.00249222 0)
(-0.00283137 0.00396807 0)
(-0.00472411 0.00547192 0)
(-0.00706008 0.00691299 0)
(-0.00980257 0.00822767 0)
(-0.0129033 0.00937341 0)
(-0.0163062 0.0103233 0)
(-0.0199498 0.0110618 0)
(-0.0237693 0.0115822 0)
(-0.0276982 0.011884 0)
(-0.0316702 0.0119713 0)
(-0.0356205 0.0118519 0)
(-0.0394862 0.0115362 0)
(-0.0432078 0.0110362 0)
(-0.0467295 0.0103657 0)
(-0.0499999 0.00953942 0)
(-0.0529719 0.00857299 0)
(-0.0556036 0.00748267 0)
(-0.0578583 0.00628532 0)
(-0.0597047 0.00499828 0)
(-0.0611172 0.0036394 0)
(-0.0620757 0.00222699 0)
(-0.0625663 0.000779846 0)
(-0.0625813 -0.000682809 0)
(-0.0621188 -0.00214129 0)
(-0.0611836 -0.00357553 0)
(-0.0597868 -0.00496512 0)
(-0.0579461 -0.00628943 0)
(-0.0556855 -0.00752775 0)
(-0.0530357 -0.00865947 0)
(-0.0500337 -0.00966434 0)
(-0.0467226 -0.0105227 0)
(-0.0431516 -0.011216 0)
(-0.0393751 -0.0117269 0)
(-0.0354526 -0.01204 0)
(-0.0314477 -0.0121424 0)
(-0.0274272 -0.0120239 0)
(-0.02346 -0.0116786 0)
(-0.019616 -0.011105 0)
(-0.015964 -0.0103076 0)
(-0.0125703 -0.00929808 0)
(-0.00949621 -0.00809779 0)
(-0.00679608 -0.0067398 0)
(-0.00451459 -0.00527275 0)
(-0.0026832 -0.00376562 0)
(-0.00131671 -0.00231318 0)
(-0.000429731 -0.00104337 0)
(-5.45034e-05 -0.000139237 0)
(-8.63214e-05 0.000458973 0)
(-0.000614254 0.00197438 0)
(-0.00180091 0.00382146 0)
(-0.00356133 0.00580782 0)
(-0.00584846 0.00779624 0)
(-0.00862774 0.00968454 0)
(-0.0118516 0.0113988 0)
(-0.0154626 0.012888 0)
(-0.0193964 0.0141188 0)
(-0.0235843 0.0150716 0)
(-0.0279544 0.0157371 0)
(-0.0324336 0.0161142 0)
(-0.036949 0.0162078 0)
(-0.0414293 0.0160276 0)
(-0.0458056 0.0155865 0)
(-0.0500125 0.0149006 0)
(-0.0539887 0.0139875 0)
(-0.0576775 0.0128668 0)
(-0.0610272 0.011559 0)
(-0.0639917 0.0100859 0)
(-0.0665306 0.00846982 0)
(-0.0686092 0.00673398 0)
(-0.0701994 0.00490223 0)
(-0.0712791 0.00299908 0)
(-0.071833 0.00104966 0)
(-0.0718523 -0.000920296 0)
(-0.0713352 -0.00288449 0)
(-0.0702868 -0.0048161 0)
(-0.0687192 -0.00668792 0)
(-0.0666518 -0.00847244 0)
(-0.0641111 -0.0101421 0)
(-0.0611307 -0.0116696 0)
(-0.0577511 -0.0130279 0)
(-0.0540199 -0.0141912 0)
(-0.0499908 -0.0151348 0)
(-0.0457238 -0.0158361 0)
(-0.0412841 -0.0162748 0)
(-0.0367415 -0.0164341 0)
(-0.0321695 -0.0163011 0)
(-0.0276439 -0.0158683 0)
(-0.0232417 -0.0151341 0)
(-0.0190391 -0.0141047 0)
(-0.0151098 -0.0127958 0)
(-0.011523 -0.0112343 0)
(-0.00834128 -0.00946171 0)
(-0.00561868 -0.00753692 0)
(-0.00339716 -0.0055412 0)
(-0.00170383 -0.00358255 0)
(-0.000574666 -0.00180159 0)
(-7.88455e-05 -0.000390395 0)
(-0.000109534 0.000804718 0)
(-0.000756334 0.00297273 0)
(-0.00218483 0.00543909 0)
(-0.00427293 0.00800888 0)
(-0.0069507 0.0105382 0)
(-0.0101696 0.0129167 0)
(-0.01387 0.0150628 0)
(-0.0179841 0.0169185 0)
(-0.0224389 0.0184454 0)
(-0.0271577 0.0196202 0)
(-0.0320617 0.0204319 0)
(-0.0370713 0.020879 0)
(-0.0421074 0.0209674 0)
(-0.047093 0.0207089 0)
(-0.0519538 0.0201197 0)
(-0.0566193 0.0192196 0)
(-0.0610234 0.0180309 0)
(-0.0651051 0.0165782 0)
(-0.0688088 0.0148875 0)
(-0.0720847 0.0129863 0)
(-0.0748894 0.010903 0)
(-0.0771855 0.00866728 0)
(-0.0789427 0.00630944 0)
(-0.0801371 0.00386071 0)
(-0.0807522 0.00135312 0)
(-0.0807784 -0.00118056 0)
(-0.0802137 -0.00370683 0)
(-0.0790633 -0.00619156 0)
(-0.0773403 -0.00860015 0)
(-0.0750652 -0.0108976 0)
(-0.0722663 -0.0130491 0)
(-0.0689797 -0.0150197 0)
(-0.0652488 -0.0167754 0)
(-0.0611245 -0.0182834 0)
(-0.0566648 -0.0195125 0)
(-0.051934 -0.0204341 0)
(-0.0470024 -0.0210228 0)
(-0.0419454 -0.0212574 0)
(-0.0368425 -0.0211219 0)
(-0.0317758 -0.0206068 0)
(-0.0268291 -0.0197103 0)
(-0.0220858 -0.0184399 0)
(-0.0176274 -0.0168145 0)
(-0.0135314 -0.0148666 0)
(-0.00986971 -0.0126446 0)
(-0.00670681 -0.0102166 0)
(-0.0040965 -0.00767409 0)
(-0.00207928 -0.00513528 0)
(-0.000712762 -0.00274978 0)
(-0.000101166 -0.000714258 0)
(-0.000130968 0.00122116 0)
(-0.000891211 0.00415866 0)
(-0.00255415 0.00733825 0)
(-0.004963 0.0105654 0)
(-0.00802558 0.0136927 0)
(-0.0116789 0.0166045 0)
(-0.0158506 0.0192135 0)
(-0.0204616 0.0214571 0)
(-0.0254296 0.0232928 0)
(-0.0306696 0.0246948 0)
(-0.0360955 0.0256511 0)
(-0.0416211 0.0261603 0)
(-0.0471617 0.02623 0)
(-0.0526347 0.0258743 0)
(-0.0579608 0.0251132 0)
(-0.0630652 0.0239705 0)
(-0.0678776 0.0224736 0)
(-0.0723332 0.0206525 0)
(-0.0763732 0.018539 0)
(-0.0799448 0.0161667 0)
(-0.0830018 0.0135708 0)
(-0.0855049 0.0107875 0)
(-0.0874216 0.00785398 0)
(-0.0887268 0.00480874 0)
(-0.0894027 0.00169107 0)
(-0.0894391 -0.00145874 0)
(-0.0888335 -0.00459958 0)
(-0.0875913 -0.00768955 0)
(-0.0857259 -0.0106862 0)
(-0.0832589 -0.0135466 0)
(-0.0802199 -0.0162278 0)
(-0.0766466 -0.0186873 0)
(-0.072585 -0.0208833 0)
(-0.0680887 -0.0227755 0)
(-0.063219 -0.0243257 0)
(-0.0580442 -0.0254989 0)
(-0.0526389 -0.0262638 0)
(-0.0470836 -0.0265945 0)
(-0.0414633 -0.0264712 0)
(-0.0358664 -0.0258821 0)
(-0.0303833 -0.0248245 0)
(-0.0251049 -0.0233068 0)
(-0.0201208 -0.0213504 0)
(-0.0155175 -0.0189922 0)
(-0.011377 -0.0162869 0)
(-0.00777533 -0.0133099 0)
(-0.00477898 -0.0101609 0)
(-0.00244243 -0.00696627 0)
(-0.000844375 -0.00388193 0)
(-0.000121782 -0.00110681 0)
(-0.000150997 0.00170455 0)
(-0.0010199 0.00552521 0)
(-0.00291011 0.00951146 0)
(-0.0056325 0.0134707 0)
(-0.00907356 0.0172538 0)
(-0.0131557 0.0207424 0)
(-0.0177936 0.0238456 0)
(-0.0228963 0.0264976 0)
(-0.0283714 0.0286535 0)
(-0.0341253 0.0302864 0)
(-0.0400644 0.0313838 0)
(-0.0460959 0.0319455 0)
(-0.0521291 0.0319812 0)
(-0.0580764 0.0315083 0)
(-0.063854 0.0305505 0)
(-0.0693827 0.0291366 0)
(-0.0745888 0.0272992 0)
(-0.0794044 0.0250741 0)
(-0.0837675 0.0224993 0)
(-0.0876232 0.0196151 0)
(-0.0909229 0.0164633 0)
(-0.0936255 0.0130872 0)
(-0.0956971 0.0095315 0)
(-0.0971111 0.00584193 0)
(-0.0978487 0.00206549 0)
(-0.0978992 -0.00174971 0)
(-0.0972594 -0.00555459 0)
(-0.0959348 -0.00929913 0)
(-0.0939388 -0.0129326 0)
(-0.0912935 -0.0164038 0)
(-0.0880295 -0.0196615 0)
(-0.0841858 -0.0226547 0)
(-0.0798102 -0.0253335 0)
(-0.0749584 -0.0276496 0)
(-0.0696945 -0.0295573 0)
(-0.0640903 -0.0310145 0)
(-0.0582243 -0.0319837 0)
(-0.0521816 -0.0324334 0)
(-0.0460526 -0.0323396 0)
(-0.0399317 -0.0316872 0)
(-0.0339163 -0.0304721 0)
(-0.0281049 -0.0287027 0)
(-0.0225959 -0.026402 0)
(-0.0174854 -0.0236104 0)
(-0.0128663 -0.0203874 0)
(-0.00882681 -0.0168144 0)
(-0.00544691 -0.0129978 0)
(-0.00279521 -0.00907025 0)
(-0.000970765 -0.00519243 0)
(-0.000141104 -0.00156469 0)
(-0.000169987 0.00225184 0)
(-0.00114371 0.00706637 0)
(-0.00325509 0.0119518 0)
(-0.00628463 0.016718 0)
(-0.0100984 0.0212157 0)
(-0.0146044 0.0253252 0)
(-0.0197038 0.0289541 0)
(-0.0252938 0.032035 0)
(-0.0312713 0.034522 0)
(-0.0375338 0.0363881 0)
(-0.0439797 0.037622 0)
(-0.0505096 0.0382253 0)
(-0.0570268 0.0382107 0)
(-0.0634386 0.0375994 0)
(-0.0696571 0.0364197 0)
(-0.0755993 0.0347056 0)
(-0.0811882 0.0324955 0)
(-0.086353 0.0298314 0)
(-0.0910296 0.026758 0)
(-0.0951607 0.0233223 0)
(-0.0986962 0.0195734 0)
(-0.101593 0.0155618 0)
(-0.103817 0.0113396 0)
(-0.105339 0.00696053 0)
(-0.106141 0.00247927 0)
(-0.10621 -0.00204799 0)
(-0.105543 -0.00656394 0)
(-0.104145 -0.0110102 0)
(-0.102029 -0.0153275 0)
(-0.0992179 -0.0194559 0)
(-0.0957424 -0.0233356 0)
(-0.0916423 -0.0269068 0)
(-0.0869666 -0.030111 0)
(-0.081773 -0.0328913 0)
(-0.0761276 -0.0351941 0)
(-0.0701051 -0.0369694 0)
(-0.0637879 -0.0381727 0)
(-0.0572652 -0.0387665 0)
(-0.0506327 -0.0387215 0)
(-0.0439909 -0.0380187 0)
(-0.0374442 -0.0366516 0)
(-0.0310994 -0.0346274 0)
(-0.0250639 -0.0319701 0)
(-0.0194443 -0.0287219 0)
(-0.0143451 -0.0249461 0)
(-0.00986748 -0.020729 0)
(-0.00610509 -0.0161821 0)
(-0.00314088 -0.0114431 0)
(-0.00109357 -0.00667695 0)
(-0.000159554 -0.00208541 0)
(-0.000188266 0.00286081 0)
(-0.00126402 0.00877741 0)
(-0.00359192 0.0146537 0)
(-0.00692361 0.0203018 0)
(-0.0111054 0.0255734 0)
(-0.0160312 0.0303487 0)
(-0.0215886 0.0345351 0)
(-0.0276625 0.0380652 0)
(-0.0341388 0.0408937 0)
(-0.0409058 0.042995 0)
(-0.0478536 0.0443597 0)
(-0.054876 0.0449928 0)
(-0.0618705 0.0449105 0)
(-0.0687394 0.0441388 0)
(-0.0753905 0.0427114 0)
(-0.0817374 0.0406679 0)
(-0.0877003 0.0380532 0)
(-0.093206 0.0349157 0)
(-0.0981883 0.0313072 0)
(-0.102588 0.0272819 0)
(-0.106354 0.0228961 0)
(-0.109443 0.0182081 0)
(-0.111817 0.0132776 0)
(-0.113448 0.00816594 0)
(-0.114316 0.00293609 0)
(-0.114409 -0.00234766 0)
(-0.113722 -0.00761964 0)
(-0.11226 -0.0128129 0)
(-0.110035 -0.0178594 0)
(-0.10707 -0.0226905 0)
(-0.103395 -0.0272371 0)
(-0.099052 -0.0314305 0)
(-0.094089 -0.035203 0)
(-0.0885655 -0.0384888 0)
(-0.0825496 -0.0412254 0)
(-0.0761182 -0.0433545 0)
(-0.069357 -0.0448239 0)
(-0.0623595 -0.0455889 0)
(-0.0552264 -0.0456142 0)
(-0.0480645 -0.044876 0)
(-0.0409855 -0.0433638 0)
(-0.0341047 -0.0410832 0)
(-0.0275392 -0.0380572 0)
(-0.0214067 -0.0343293 0)
(-0.0158239 -0.0299651 0)
(-0.0109056 -0.0250543 0)
(-0.00675964 -0.0197128 0)
(-0.0034833 -0.0140828 0)
(-0.00121455 -0.00833297 0)
(-0.000177523 -0.00266747 0)
(-0.000206118 0.00352995 0)
(-0.00138213 0.010655 0)
(-0.00392355 0.017613 0)
(-0.00755406 0.0242181 0)
(-0.0121008 0.0303231 0)
(-0.0174436 0.0358095 0)
(-0.0234565 0.0405855 0)
(-0.0300117 0.0445852 0)
(-0.0369842 0.0477654 0)
(-0.0442524 0.0501031 0)
(-0.0516982 0.0515924 0)
(-0.0592083 0.0522423 0)
(-0.0666742 0.0520742 0)
(-0.0739936 0.0511195 0)
(-0.08107 0.0494179 0)
(-0.0878141 0.0470157 0)
(-0.0941433 0.0439643 0)
(-0.0999825 0.0403195 0)
(-0.105264 0.0361404 0)
(-0.109927 0.0314885 0)
(-0.113919 0.0264279 0)
(-0.117196 0.0210243 0)
(-0.11972 0.0153453 0)
(-0.121462 0.00946037 0)
(-0.122401 0.0034403 0)
(-0.122523 -0.00264232 0)
(-0.121823 -0.00871339 0)
(-0.120306 -0.0146973 0)
(-0.117983 -0.0205173 0)
(-0.114876 -0.0260954 0)
(-0.111015 -0.0313535 0)
(-0.106441 -0.0362133 0)
(-0.101204 -0.0405975 0)
(-0.0953623 -0.044431 0)
(-0.0889861 -0.0476417 0)
(-0.0821544 -0.0501622 0)
(-0.0749557 -0.0519317 0)
(-0.0674876 -0.0528973 0)
(-0.0598558 -0.0530167 0)
(-0.0521733 -0.0522599 0)
(-0.0445595 -0.0506117 0)
(-0.0371384 -0.048074 0)
(-0.0300376 -0.0446682 0)
(-0.0233864 -0.0404373 0)
(-0.0173144 -0.0354483 0)
(-0.0119505 -0.0297932 0)
(-0.00741723 -0.0235916 0)
(-0.00382653 -0.0169896 0)
(-0.00133544 -0.0101599 0)
(-0.000195372 -0.00331031 0)
(-0.00022379 0.00425846 0)
(-0.00149926 0.0126974 0)
(-0.00425279 0.0208275 0)
(-0.00818057 0.0284645 0)
(-0.0130908 0.0354628 0)
(-0.0188492 0.0417055 0)
(-0.0253163 0.0471033 0)
(-0.0323513 0.0515929 0)
(-0.0398179 0.0551345 0)
(-0.0475844 0.0577091 0)
(-0.0555246 0.0593158 0)
(-0.0635176 0.0599689 0)
(-0.0714494 0.0596959 0)
(-0.0792125 0.0585348 0)
(-0.0867071 0.0565321 0)
(-0.0938406 0.0537414 0)
(-0.100528 0.0502217 0)
(-0.106694 0.0460362 0)
(-0.112267 0.0412517 0)
(-0.117188 0.0359376 0)
(-0.121402 0.0301654 0)
(-0.124865 0.024009 0)
(-0.127538 0.0175436 0)
(-0.129392 0.0108466 0)
(-0.130405 0.00399678 0)
(-0.130563 -0.00292503 0)
(-0.129859 -0.00983636 0)
(-0.128297 -0.016653 0)
(-0.125888 -0.0232892 0)
(-0.122652 -0.029658 0)
(-0.118619 -0.0356717 0)
(-0.113828 -0.0412421 0)
(-0.108329 -0.0462823 0)
(-0.102182 -0.0507068 0)
(-0.0954565 -0.0544335 0)
(-0.0882337 -0.057385 0)
(-0.0806045 -0.0594909 0)
(-0.0726702 -0.0606891 0)
(-0.0645413 -0.0609288 0)
(-0.0563373 -0.0601726 0)
(-0.0481852 -0.0583991 0)
(-0.0402185 -0.0556053 0)
(-0.0325755 -0.0518094 0)
(-0.0253978 -0.0470528 0)
(-0.0188286 -0.0414022 0)
(-0.0130116 -0.0349514 0)
(-0.00808467 -0.0278228 0)
(-0.00417463 -0.0201663 0)
(-0.00145792 -0.0121592 0)
(-0.000213427 -0.00401428 0)
(-0.000241494 0.00504612 0)
(-0.00161651 0.014904 0)
(-0.00458225 0.0242965 0)
(-0.00880749 0.0330404 0)
(-0.0140814 0.0409917 0)
(-0.0202556 0.0480362 0)
(-0.0271765 0.0540876 0)
(-0.0346904 0.0590868 0)
(-0.0426493 0.0629987 0)
(-0.0509116 0.0658099 0)
(-0.059342 0.0675257 0)
(-0.0678128 0.0681672 0)
(-0.0762039 0.0677693 0)
(-0.0844034 0.0663774 0)
(-0.0923078 0.0640462 0)
(-0.0998221 0.0608371 0)
(-0.10686 0.0568173 0)
(-0.113342 0.0520583 0)
(-0.1192 0.0466346 0)
(-0.124372 0.0406238 0)
(-0.128803 0.0341053 0)
(-0.132449 0.0271606 0)
(-0.135271 0.019873 0)
(-0.137239 0.0123274 0)
(-0.13833 0.00461071 0)
(-0.138529 -0.00318833 0)
(-0.137831 -0.010979 0)
(-0.136235 -0.0186686 0)
(-0.133752 -0.0261625 0)
(-0.130401 -0.0333645 0)
(-0.126211 -0.0401773 0)
(-0.121219 -0.0465029 0)
(-0.115474 -0.0522437 0)
(-0.109035 -0.0573037 0)
(-0.101974 -0.0615901 0)
(-0.0943705 -0.0650144 0)
(-0.0863191 -0.0674954 0)
(-0.077924 -0.0689608 0)
(-0.0693006 -0.0693499 0)
(-0.0605744 -0.0686163 0)
(-0.0518806 -0.0667308 0)
(-0.0433623 -0.063684 0)
(-0.035169 -0.0594891 0)
(-0.0274552 -0.0541845 0)
(-0.0203786 -0.0478358 0)
(-0.0140985 -0.0405372 0)
(-0.00876864 -0.0324134 0)
(-0.00453152 -0.0236183 0)
(-0.00158359 -0.0143343 0)
(-0.000231984 -0.00478062 0)
(-0.000259411 0.00589326 0)
(-0.00173484 0.0172755 0)
(-0.00491436 0.028021 0)
(-0.00943886 0.0379467 0)
(-0.0150782 0.0469108 0)
(-0.0216695 0.054802 0)
(-0.0290449 0.0615383 0)
(-0.0370374 0.0670658 0)
(-0.045487 0.0713558 0)
(-0.0542417 0.0744019 0)
(-0.0631576 0.0762171 0)
(-0.0720997 0.0768309 0)
(-0.0809422 0.0762867 0)
(-0.0895688 0.0746388 0)
(-0.0978728 0.0719508 0)
(-0.105757 0.0682932 0)
(-0.113133 0.0637419 0)
(-0.119923 0.0583768 0)
(-0.126055 0.0522813 0)
(-0.131469 0.0455408 0)
(-0.136112 0.0382429 0)
(-0.139936 0.0304769 0)
(-0.142905 0.0223336 0)
(-0.144987 0.0139056 0)
(-0.146161 0.0052875 0)
(-0.146409 -0.00342425 0)
(-0.145725 -0.0121309 0)
(-0.144107 -0.0207315 0)
(-0.141565 -0.0291228 0)
(-0.138116 -0.0371993 0)
(-0.133785 -0.0448541 0)
(-0.12861 -0.051979 0)
(-0.122637 -0.0584658 0)
(-0.115925 -0.0642071 0)
(-0.108542 -0.0690985 0)
(-0.100572 -0.0730397 0)
(-0.0921096 -0.0759376 0)
(-0.0832614 -0.0777079 0)
(-0.0741476 -0.0782786 0)
(-0.0649 -0.0775928 0)
(-0.0556617 -0.0756115 0)
(-0.0465855 -0.0723173 0)
(-0.037833 -0.0677167 0)
(-0.0295723 -0.0618434 0)
(-0.0219762 -0.0547603 0)
(-0.0152203 -0.0465615 0)
(-0.0094756 -0.0373733 0)
(-0.00490096 -0.0273535 0)
(-0.00171394 -0.0166905 0)
(-0.000251317 -0.00561133 0)
(-0.000277703 0.00680071 0)
(-0.00185514 0.0198137 0)
(-0.00525131 0.0320033 0)
(-0.0100784 0.0431861 0)
(-0.0160864 0.0532224 0)
(-0.0230973 0.0620044 0)
(-0.0309287 0.0694557 0)
(-0.0393995 0.0755289 0)
(-0.0483378 0.0802031 0)
(-0.0575809 0.0834806 0)
(-0.0669759 0.0853838 0)
(-0.0763809 0.0859519 0)
(-0.0856644 0.0852385 0)
(-0.0947061 0.083308 0)
(-0.103396 0.0802342 0)
(-0.111636 0.0760974 0)
(-0.119337 0.0709831 0)
(-0.12642 0.0649805 0)
(-0.132815 0.0581816 0)
(-0.13846 0.0506803 0)
(-0.143304 0.0425721 0)
(-0.147301 0.0339541 0)
(-0.150414 0.0249245 0)
(-0.152611 0.0155834 0)
(-0.15387 0.00603245 0)
(-0.154174 -0.00362436 0)
(-0.153514 -0.0132807 0)
(-0.151889 -0.0228278 0)
(-0.149304 -0.0321538 0)
(-0.145774 -0.0411444 0)
(-0.141324 -0.049683 0)
(-0.135987 -0.0576511 0)
(-0.129808 -0.0649294 0)
(-0.122842 -0.0713988 0)
(-0.115158 -0.0769424 0)
(-0.106839 -0.0814472 0)
(-0.0979798 -0.0848065 0)
(-0.0886895 -0.086923 0)
(-0.0790924 -0.0877115 0)
(-0.0693262 -0.0871026 0)
(-0.0595417 -0.0850456 0)
(-0.0499023 -0.0815129 0)
(-0.0405816 -0.0765026 0)
(-0.0317619 -0.0700418 0)
(-0.0236323 -0.0621894 0)
(-0.0163859 -0.053038 0)
(-0.0102117 -0.042715 0)
(-0.00528651 -0.0313824 0)
(-0.0018504 -0.0192349 0)
(-0.000271681 -0.0065092 0)
(-0.000296516 0.0077697 0)
(-0.00197824 0.0225217 0)
(-0.00559514 0.0362473 0)
(-0.0107296 0.0487625 0)
(-0.0171107 0.0599298 0)
(-0.0245448 0.0696459 0)
(-0.032834 0.0778407 0)
(-0.041783 0.084475 0)
(-0.051207 0.0895372 0)
(-0.0609328 0.0930401 0)
(-0.0707986 0.0950172 0)
(-0.0806552 0.0955195 0)
(-0.090366 0.0946119 0)
(-0.099807 0.0923708 0)
(-0.108866 0.0888811 0)
(-0.117444 0.084234 0)
(-0.125451 0.0785255 0)
(-0.13281 0.0718544 0)
(-0.13945 0.064322 0)
(-0.145313 0.0560306 0)
(-0.150346 0.0470839 0)
(-0.154507 0.0375863 0)
(-0.157757 0.0276434 0)
(-0.160068 0.0173619 0)
(-0.161415 0.00685059 0)
(-0.161781 -0.00377989 0)
(-0.161157 -0.0144161 0)
(-0.159539 -0.0249417 0)
(-0.156929 -0.0352369 0)
(-0.153341 -0.0451789 0)
(-0.148795 -0.0546414 0)
(-0.143322 -0.0634957 0)
(-0.136962 -0.0716111 0)
(-0.129769 -0.0788563 0)
(-0.121809 -0.0851011 0)
(-0.113163 -0.0902186 0)
(-0.103926 -0.0940875 0)
(-0.0942093 -0.0965955 0)
(-0.0841398 -0.0976423 0)
(-0.0738608 -0.0971438 0)
(-0.0635312 -0.0950358 0)
(-0.0533243 -0.0912779 0)
(-0.0434267 -0.0858574 0)
(-0.0340356 -0.0787932 0)
(-0.0253571 -0.0701382 0)
(-0.0176034 -0.0599823 0)
(-0.0109828 -0.0484536 0)
(-0.00569162 -0.0357176 0)
(-0.00199432 -0.0219764 0)
(-0.000293319 -0.00747772 0)
(-0.000315986 0.00880191 0)
(-0.0021049 0.0254032 0)
(-0.00594779 0.0407579 0)
(-0.0113957 0.0546812 0)
(-0.0181556 0.0670376 0)
(-0.0260171 0.0777294 0)
(-0.0347662 0.0866941 0)
(-0.0441925 0.093902 0)
(-0.0540983 0.0993531 0)
(-0.0642989 0.103072 0)
(-0.074624 0.105106 0)
(-0.0849175 0.105519 0)
(-0.0950378 0.10439 0)
(-0.104858 0.101809 0)
(-0.114264 0.0978714 0)
(-0.123156 0.0926824 0)
(-0.131446 0.0863485 0)
(-0.139057 0.0789791 0)
(-0.145921 0.0706847 0)
(-0.151982 0.0615766 0)
(-0.157189 0.0517661 0)
(-0.1615 0.041365 0)
(-0.164881 0.0304856 0)
(-0.167301 0.0192411 0)
(-0.168738 0.0077463 0)
(-0.169173 -0.00388186 0)
(-0.168596 -0.0155236 0)
(-0.167 -0.0270556 0)
(-0.164388 -0.038351 0)
(-0.160766 -0.0492784 0)
(-0.156152 -0.0597026 0)
(-0.150572 -0.0694846 0)
(-0.144063 -0.0784822 0)
(-0.136675 -0.0865515 0)
(-0.128469 -0.0935482 0)
(-0.119525 -0.0993303 0)
(-0.109937 -0.10376 0)
(-0.0998144 -0.10671 0)
(-0.0892887 -0.10806 0)
(-0.0785074 -0.107711 0)
(-0.0676369 -0.105583 0)
(-0.0568608 -0.101618 0)
(-0.0463787 -0.0957917 0)
(-0.0364038 -0.0881119 0)
(-0.0271603 -0.0786236 0)
(-0.0188806 -0.0674126 0)
(-0.0117946 -0.0546062 0)
(-0.00611959 -0.040374 0)
(-0.00214702 -0.0249255 0)
(-0.000316469 -0.00852106 0)
(-0.00033625 0.00989937 0)
(-0.00223589 0.0284631 0)
(-0.00631117 0.0455416 0)
(-0.0120799 0.0609485 0)
(-0.0192253 0.0745513 0)
(-0.0275192 0.0862584 0)
(-0.0367302 0.0960163 0)
(-0.0466321 0.103807 0)
(-0.0570134 0.109644 0)
(-0.0676784 0.113566 0)
(-0.0784477 0.115636 0)
(-0.0891585 0.115933 0)
(-0.0996651 0.114552 0)
(-0.109838 0.111597 0)
(-0.119562 0.10718 0)
(-0.128739 0.101416 0)
(-0.137282 0.0944261 0)
(-0.145116 0.0863296 0)
(-0.152177 0.0772469 0)
(-0.15841 0.0672981 0)
(-0.163769 0.0566023 0)
(-0.168215 0.0452781 0)
(-0.171713 0.033444 0)
(-0.174237 0.0212189 0)
(-0.175763 0.00872302 0)
(-0.176273 -0.00392129 0)
(-0.175755 -0.0165887 0)
(-0.174201 -0.02915 0)
(-0.171607 -0.0414716 0)
(-0.16798 -0.0534147 0)
(-0.163331 -0.0648353 0)
(-0.15768 -0.0755843 0)
(-0.151061 -0.0855081 0)
(-0.143516 -0.0944498 0)
(-0.135103 -0.10225 0)
(-0.125897 -0.108752 0)
(-0.11599 -0.113799 0)
(-0.105491 -0.117244 0)
(-0.0945314 -0.11895 0)
(-0.0832639 -0.118796 0)
(-0.0718614 -0.116683 0)
(-0.0605177 -0.112537 0)
(-0.0494459 -0.106315 0)
(-0.0388754 -0.0980122 0)
(-0.0290503 -0.0876636 0)
(-0.0202249 -0.0753484 0)
(-0.0126525 -0.0611925 0)
(-0.00657366 -0.0453687 0)
(-0.00230982 -0.0280945 0)
(-0.00034137 -0.0096441 0)
(-0.00035745 0.0110645 0)
(-0.00237201 0.0317072 0)
(-0.00668727 0.0506058 0)
(-0.0127854 0.0675721 0)
(-0.0203241 0.0824771 0)
(-0.0290557 0.0952363 0)
(-0.0387302 0.105807 0)
(-0.0491045 0.114185 0)
(-0.0599529 0.1204 0)
(-0.071068 0.124507 0)
(-0.0822615 0.126586 0)
(-0.0933646 0.126737 0)
(-0.104228 0.12507 0)
(-0.11472 0.121706 0)
(-0.124727 0.116773 0)
(-0.134151 0.110402 0)
(-0.142908 0.102725 0)
(-0.150928 0.0938739 0)
(-0.158151 0.0839791 0)
(-0.164526 0.0731692 0)
(-0.17001 0.0615708 0)
(-0.174567 0.049309 0)
(-0.178168 0.0365077 0)
(-0.180785 0.0232907 0)
(-0.182398 0.00978279 0)
(-0.182988 -0.00388946 0)
(-0.182541 -0.0175962 0)
(-0.181047 -0.0312033 0)
(-0.178499 -0.0445714 0)
(-0.174899 -0.0575551 0)
(-0.170252 -0.0700024 0)
(-0.164573 -0.0817546 0)
(-0.157888 -0.0926468 0)
(-0.150233 -0.102509 0)
(-0.14166 -0.111166 0)
(-0.132238 -0.118444 0)
(-0.122054 -0.124167 0)
(-0.111215 -0.128168 0)
(-0.0998528 -0.130287 0)
(-0.0881224 -0.130382 0)
(-0.0762029 -0.128329 0)
(-0.0642979 -0.124034 0)
(-0.052634 -0.117435 0)
(-0.0414583 -0.108508 0)
(-0.0310353 -0.0972766 0)
(-0.0216434 -0.0838109 0)
(-0.0135617 -0.0682339 0)
(-0.00705707 -0.0507205 0)
(-0.00248403 -0.0314969 0)
(-0.000368266 -0.0108524 0)
(-0.000379745 0.0123003 0)
(-0.00251416 0.0351423 0)
(-0.00707829 0.0559592 0)
(-0.0135158 0.0745608 0)
(-0.0214565 0.0908219 0)
(-0.0306315 0.104667 0)
(-0.0407702 0.116065 0)
(-0.0516119 0.12503 0)
(-0.0629155 0.131607 0)
(-0.0744618 0.135875 0)
(-0.0860539 0.137932 0)
(-0.0975173 0.137899 0)
(-0.108699 0.135907 0)
(-0.119469 0.132096 0)
(-0.129713 0.12661 0)
(-0.139337 0.119598 0)
(-0.148263 0.111204 0)
(-0.156423 0.101572 0)
(-0.163765 0.0908443 0)
(-0.170241 0.0791569 0)
(-0.175816 0.0666439 0)
(-0.180457 0.053436 0)
(-0.184138 0.0396618 0)
(-0.186836 0.0254491 0)
(-0.18853 0.0109258 0)
(-0.189203 -0.00377821 0)
(-0.188839 -0.0185299 0)
(-0.187426 -0.0331916 0)
(-0.184953 -0.0476193 0)
(-0.181416 -0.0616622 0)
(-0.176815 -0.075161 0)
(-0.171157 -0.0879483 0)
(-0.164459 -0.0998482 0)
(-0.156751 -0.110677 0)
(-0.148075 -0.120245 0)
(-0.138492 -0.128358 0)
(-0.128083 -0.134822 0)
(-0.116953 -0.139445 0)
(-0.105229 -0.142042 0)
(-0.0930677 -0.142446 0)
(-0.080654 -0.140508 0)
(-0.0682003 -0.136106 0)
(-0.0559467 -0.129155 0)
(-0.0441583 -0.119612 0)
(-0.0331222 -0.107481 0)
(-0.0231428 -0.0928225 0)
(-0.0145276 -0.0757535 0)
(-0.00757313 -0.0564505 0)
(-0.00267105 -0.0351482 0)
(-0.000397418 -0.0121521 0)
(-0.000403324 0.01361 0)
(-0.00266336 0.0387763 0)
(-0.00748674 0.061612 0)
(-0.0142752 0.0819245 0)
(-0.0226278 0.0995931 0)
(-0.0322517 0.114552 0)
(-0.0428546 0.126788 0)
(-0.0541558 0.136331 0)
(-0.0658987 0.14325 0)
(-0.0778518 0.147645 0)
(-0.0898097 0.149642 0)
(-0.101593 0.149382 0)
(-0.113047 0.147021 0)
(-0.124042 0.142719 0)
(-0.134468 0.136641 0)
(-0.144236 0.128952 0)
(-0.153271 0.119811 0)
(-0.161516 0.109375 0)
(-0.168923 0.0977968 0)
(-0.175453 0.0852204 0)
(-0.181076 0.0717867 0)
(-0.185765 0.0576312 0)
(-0.1895 0.0428865 0)
(-0.192259 0.0276827 0)
(-0.194026 0.0121499 0)
(-0.194784 -0.00358036 0)
(-0.194514 -0.0193734 0)
(-0.193204 -0.0350891 0)
(-0.190838 -0.0505809 0)
(-0.187405 -0.0656934 0)
(-0.182899 -0.0802616 0)