/*--------------------------------*- C++ -*----------------------------------*\
| =========                 |                                                 |
| \\      /  F ield         | OpenFOAM: The Open Source CFD Toolbox           |
|  \\    /   O peration     | Version:  v2012                                 |
|   \\  /    A nd           | Website:  www.openfoam.com                      |
|    \\/     M anipulation  |                                                 |
\*---------------------------------------------------------------------------*/
FoamFile
{
    version     2.0;
    format      ascii;
    class       volScalarField;
    location    "0.1";
    object      p;
}
// * * * * * * * * * * * * * * * * * * * * * * * * * * * * * * * * * * * * * //

dimensions      [0 2 -2 0 0 0 0];


internalField   nonuniform List<scalar> 
2500
(
-1.71667e-07
-0.000560504
-0.00227834
-0.00486841
-0.00791862
-0.0111031
-0.0141676
-0.0169145
-0.0191941
-0.020897
-0.0219462
-0.0222919
-0.0219065
-0.0207815
-0.0189241
-0.0163552
-0.0131075
-0.00922344
-0.00475461
0.000240059
0.00569487
0.0115385
0.0176945
0.0240822
0.0306179
0.0372147
0.0437843
0.0502374
0.0564852
0.0624399
0.0680165
0.0731339
0.0777166
0.0816959
0.0850119
0.0876151
0.0894687
0.0905504
0.0908549
0.090396
0.0892096
0.0873565
0.0849267
0.0820438
0.0788705
0.0756157
0.0725402
0.0699679
0.0683017
0.0677976
0.000559282
1.19261e-06
-0.00142186
-0.00349004
-0.00591237
-0.00845028
-0.0109037
-0.0131077
-0.0149316
-0.0162753
-0.0170657
-0.0172529
-0.0168069
-0.0157151
-0.0139795
-0.0116151
-0.00864799
-0.00511398
-0.00105741
0.00347009
0.00841036
0.0136997
0.0192697
0.0250477
0.0309581
0.0369228
0.0428619
0.048695
0.0543423
0.0597253
0.0647681
0.0693991
0.0735516
0.0771658
0.0801905
0.0825841
0.084317
0.0853732
0.0857524
0.0854716
0.0845676
0.0830996
0.0811511
0.0788335
0.076288
0.0736882
0.0712391
0.069178
0.0677937
0.0672937
0.00227809
0.00142386
-9.16711e-06
-0.0018773
-0.003995
-0.0061813
-0.00827684
-0.0101465
-0.0116792
-0.0127876
-0.0134057
-0.0134871
-0.0130029
-0.0119392
-0.0102958
-0.00808424
-0.00532659
-0.00205393
0.00169448
0.0058724
0.0104274
0.0153016
0.0204327
0.0257543
0.0311972
0.0366898
0.0421589
0.0475309
0.0527326
0.0576924
0.0623414
0.0666143
0.0704512
0.0737982
0.0766098
0.0788498
0.0804928
0.0815263
0.0819521
0.0817877
0.0810682
0.0798482
0.0782028
0.0762296
0.0740491
0.0718042
0.0696592
0.0677966
0.0664063
0.0656312
0.004896
0.00350611
0.00183567
-6.17341e-05
-0.00210331
-0.00414891
-0.00607028
-0.00775894
-0.00912364
-0.0100906
-0.0106032
-0.0106208
-0.0101178
-0.00908163
-0.0075117
-0.00541814
-0.00282065
0.000252684
0.00376624
0.00767774
0.011939
0.0164969
0.0212938
0.0262683
0.0313562
0.036491
0.0416047
0.046629
0.0514959
0.0561389
0.0604939
0.0645005
0.0681031
0.0712523
0.073906
0.0760311
0.0776045
0.0786151
0.0790644
0.0789686
0.0783592
0.0772843
0.0758096
0.0740187
0.0720122
0.0699072
0.0678377
0.0659474
0.0643295
0.0630445
0.00803729
0.00598442
0.00395057
0.00189805
-0.000192324
-0.00221375
-0.00406413
-0.00565946
-0.00692749
-0.00780846
-0.00825586
-0.0082362
-0.00772817
-0.00672178
-0.0052174
-0.00322485
-0.000762433
0.00214382
0.005461
0.00915004
0.0131663
0.0174606
0.0219793
0.0266652
0.0314585
0.0362971
0.0411174
0.0458554
0.0504475
0.0548313
0.0589467
0.062737
0.0661499
0.0691389
0.0716645
0.0736952
0.0752092
0.0761951
0.0766535
0.0765976
0.0760543
0.0750645
0.073684
0.0719825
0.0700425
0.0679573
0.0658363
0.0637919
0.0618205
0.0598958
0.0114171
0.0086474
0.00617478
0.00387955
0.00164815
-0.000438816
-0.00230047
-0.00387431
-0.00510558
-0.00594794
-0.00636515
-0.00633116
-0.0058299
-0.00485476
-0.00340792
-0.00149973
0.000851965
0.00362238
0.00678053
0.0102898
0.0141086
0.0181905
0.0224855
0.02694
0.0314976
0.0361
0.0406871
0.0451987
0.0495744
0.0537551
0.0576837
0.0613061
0.0645724
0.0674381
0.0698648
0.0718219
0.0732874
0.074249
0.0747051
0.0746651
0.0741508
0.0731957
0.0718457
0.0701577
0.0681976
0.0660388
0.063771
0.0614824
0.0590798
0.0564582
0.014818
0.0113188
0.00836514
0.00576678
0.00332618
0.00110441
-0.000834139
-0.00244522
-0.0036896
-0.00453323
-0.00494966
-0.00492047
-0.00443514
-0.0034909
-0.00209239
-0.000251258
0.0020144
0.0046804
0.00771698
0.0110893
0.0147577
0.0186785
0.0228043
0.0270842
0.0314649
0.0358908
0.0403049
0.0446495
0.048867
0.0529005
0.0566949
0.0601981
0.0633613
0.0661408
0.0684989
0.0704045
0.0718346
0.072775
0.0732211
0.0731784
0.0726627
0.0717004
0.0703282
0.0685914
0.0665419
0.0642364
0.0617499
0.0591533
0.0562736
0.0529389
0.0180714
0.0138508
0.0103963
0.00745675
0.00476044
0.00235436
0.000290416
-0.00140225
-0.00269779
-0.00357332
-0.00401145
-0.004001
-0.00353709
-0.00262118
-0.00126072
0.000530914
0.00273482
0.00532676
0.00827756
0.0115535
0.0151166
0.018925
0.0229332
0.0270925
0.0313519
0.0356581
0.0399563
0.0441906
0.0483052
0.0522448
0.0559556
0.0593863
0.0624886
0.0652188
0.0675386
0.0694159
0.0708258
0.0717515
0.072185
0.072127
0.0715879
0.070587
0.0691525
0.0673199
0.065129
0.0626232
0.0598672
0.0569202
0.0535395
0.0494957
0.0210453
0.0161206
0.0121587
0.0088553
0.00587271
0.00324818
0.00102452
-0.000781831
-0.00215636
-0.00308587
-0.00356128
-0.00357831
-0.0031376
-0.00224475
-0.000910317
0.00085021
0.00301668
0.00556436
0.00846424
0.0116832
0.0151843
0.0189268
0.0228668
0.0269574
0.0311489
0.0353898
0.0396266
0.043805
0.0478701
0.0517675
0.0554438
0.0588478
0.0619309
0.0646488
0.0669617
0.0688356
0.0702433
0.0711648
0.0715879
0.0715089
0.0709322
0.0698708
0.0683452
0.0663824
0.0640123
0.061268
0.0582074
0.0548827
0.0509895
0.0462486
0.0236346
0.0180248
0.0135557
0.00987593
0.00658789
0.00372219
0.00131517
-0.000626954
-0.00209939
-0.0030975
-0.00361965
-0.00366792
-0.00324816
-0.00237017
-0.00104772
0.000701366
0.00285541
0.00538886
0.00827241
0.0114731
0.0149544
0.0186766
0.0225966
0.0266685
0.0308441
0.0350725
0.0393013
0.0434768
0.0475447
0.0514507
0.0551413
0.0585645
0.0616708
0.0644144
0.0667534
0.0686516
0.0700784
0.0710102
0.0714305
0.0713307
0.0707099
0.0695746
0.0679386
0.0658217
0.0632458
0.0602361
0.0568467
0.0531263
0.0487152
0.0432901
0.0257522
0.0194742
0.0145017
0.0104391
0.0068341
0.00371301
0.00110765
-0.000984223
-0.00256614
-0.00364089
-0.00421354
-0.00429199
-0.00388708
-0.0030127
-0.00168589
7.31054e-05
0.00224086
0.00479067
0.00769258
0.0109134
0.0144168
0.0181634
0.0221107
0.0262134
0.0304238
0.0346917
0.038965
0.0431902
0.0473129
0.0512783
0.055032
0.058521
0.0616941
0.0645031
0.0669039
0.0688569
0.0703279
0.0712891
0.0717195
0.0716055
0.0709405
0.0697256
0.0679683
0.065682
0.0628826
0.0595891
0.0558543
0.051726
0.0467936
0.0406932
0.0273234
0.0203903
0.0149181
0.0104702
0.00654214
0.00315771
0.000345678
-0.00190332
-0.00359997
-0.0047536
-0.00537531
-0.00547844
-0.00507852
-0.00419341
-0.00284338
-0.0010512
0.00115777
0.00375542
0.00671091
0.00999056
0.0135578
0.0173733
0.0213948
0.0255772
0.0298729
0.0342318
0.0386018
0.0429292
0.0471587
0.0512348
0.0551016
0.0587042
0.0619894
0.0649062
0.0674071
0.0694488
0.0709932
0.0720077
0.0724666
0.0723508
0.0716486
0.0703551
0.0684726
0.0660092
0.0629755
0.0593861
0.0552943
0.0507489
0.0452913
0.038519
0.0282802
0.0207004
0.0147319
0.00989799
0.00564436
0.0019932
-0.00102867
-0.00343674
-0.00524797
-0.00647761
-0.00714229
-0.0072604
-0.00685195
-0.00593863
-0.00454391
-0.00269319
-0.000413914
0.00226427
0.00530942
0.00868712
0.0123603
0.0162894
0.020432
0.0247428
0.0291742
0.0336757
0.038195
0.0426772
0.0470665
0.0513054
0.0553366
0.0591027
0.0625476
0.0656172
0.06826
0.0704286
0.07208
0.0731769
0.073688
0.073589
0.0728625
0.0714982
0.0694932
0.066851
0.0635779
0.0596854
0.055228
0.0502576
0.0442687
0.0368212
0.0285586
0.0203359
0.0138728
0.00865301
0.00407354
0.000155665
-0.0030751
-0.0056397
-0.00756079
-0.00885906
-0.00955633
-0.00967575
-0.00924165
-0.00827948
-0.00681593
-0.0048791
-0.00249857
0.000294322
0.00346635
0.00698214
0.010804
0.0148917
0.0192025
0.0236909
0.0283087
0.033005
0.0377264
0.0424173
0.0470201
0.0514758
0.0557246
0.0597063
0.0633615
0.0666322
0.0694627
0.0718005
0.0735977
0.0748112
0.0754043
0.0753464
0.0746147
0.0731935
0.0710747
0.0682576
0.0647448
0.0605452
0.0557161
0.0503129
0.0437835
0.0356506
0.0280957
0.019229
0.012271
0.00666587
0.00176184
-0.00242019
-0.00585559
-0.00857036
-0.0105926
-0.011948
-0.0126634
-0.0127666
-0.0122863
-0.0112515
-0.00969216
-0.00763921
-0.00512444
-0.002181
0.00115647
0.00485148
0.00886547
0.0131576
0.0176845
0.0224002
0.0272557
0.0321995
0.0371771
0.0421314
0.0470032
0.0517314
0.0562532
0.0605055
0.0644249
0.0679489
0.0710171
0.0735716
0.0755586
0.0769289
0.0776393
0.0776534
0.076942
0.0754836
0.0732654
0.0702823
0.0665336
0.0620261
0.0568204
0.0509759
0.0438937
0.035058
0.0268274
0.0173115
0.00985622
0.00386594
-0.00136032
-0.00580191
-0.00943486
-0.0122901
-0.0144009
-0.0157981
-0.0165134
-0.0165792
-0.0160284
-0.0148939
-0.0132091
-0.0110074
-0.0083232
-0.0051915
-0.00164848
0.00226816
0.00651892
0.0110622
0.0158539
0.0208473
0.0259927
0.0312377
0.0365265
0.0418007
0.0469988
0.0520573
0.0569105
0.0614914
0.0657325
0.0695666
0.0729274
0.0757513
0.0779777
0.079551
0.080421
0.0805442
0.0798849
0.0784156
0.076118
0.0729828
0.0690059
0.0641922
0.0586058
0.052311
0.04466
0.0350974
0.0246871
0.0145126
0.00655573
0.000180117
-0.0053653
-0.0100601
-0.013881
-0.0168638
-0.0190471
-0.020467
-0.02116
-0.0211634
-0.0205143
-0.0192498
-0.0174063
-0.0150207
-0.0121295
-0.00876971
-0.00497927
-0.000797107
0.00373626
0.00857838
0.0136845
0.019007
0.0244957
0.0300967
0.0357533
0.0414052
0.0469889
0.0524382
0.0576839
0.0626552
0.0672799
0.0714851
0.0751989
0.0783506
0.0808728
0.082702
0.0837804
0.084057
0.0834886
0.082041
0.0796901
0.0764218
0.0722283
0.0671124
0.0611423
0.0543871
0.0461479
0.0358277
0.0216043
0.0107579
0.00229306
-0.00446845
-0.0103293
-0.0152692
-0.0192659
-0.0223603
-0.0245965
-0.0260159
-0.0266605
-0.0265724
-0.0257935
-0.0243648
-0.0223266
-0.0197186
-0.0165801
-0.0129503
-0.0088686
-0.00437539
0.000487819
0.00567777
0.0111489
0.0168532
0.0227392
0.0287525
0.0348348
0.0409242
0.046955
0.052858
0.0585608
0.063988
0.0690624
0.0737054
0.0778381
0.0813827
0.0842635
0.0864089
0.0877523
0.0882341
0.0878029
0.0864167
0.0840449
0.0806678
0.0762735
0.0708625
0.0645066
0.0572803
0.04843
0.0373152
0.017503
0.00596804
-0.00301305
-0.0101615
-0.0163331
-0.0215085
-0.0256662
-0.0288527
-0.0311183
-0.0325101
-0.0330757
-0.0328628
-0.0319182
-0.0302873
-0.0280144
-0.0251425
-0.0217137
-0.0177692
-0.0133504
-0.00849879
-0.003257
0.002331
0.00821907
0.0143585
0.0206973
0.0271802
0.0337476
0.0403361
0.0468778
0.0533004
0.059528
0.0654808
0.071076
0.0762286
0.0808525
0.0848617
0.0881718
0.0907017
0.0923749
0.0931222
0.0928827
0.0916056
0.0892523
0.0857969
0.0812225
0.0755264
0.0687841
0.0610752
0.0515881
0.0396356
0.0123013
5.73856e-05
-0.00945006
-0.0169866
-0.0234638
-0.0288628
-0.0331637
-0.0364193
-0.0386863
-0.0400186
-0.0404699
-0.040094
-0.0389431
-0.0370676
-0.034516
-0.031335
-0.0275694
-0.023263
-0.0184587
-0.0131995
-0.00752885
-0.00149128
0.00486664
0.0114958
0.0183439
0.0253548
0.0324682
0.0396191
0.0467374
0.0537483
0.060572
0.0671241
0.073316
0.079056
0.0842502
0.0888034
0.0926216
0.0956129
0.0976902
0.0987727
0.0987886
0.0976769
0.0953898
0.0918937
0.0871652
0.0811979
0.0740705
0.0658675
0.0557148
0.0428755
0.00591007
-0.00706699
-0.0171128
-0.0250389
-0.0318149
-0.0374233
-0.0418462
-0.0451433
-0.047379
-0.0486143
-0.0489104
-0.0483277
-0.0469246
-0.044757
-0.0418781
-0.0383385
-0.0341862
-0.0294675
-0.024227
-0.0185089
-0.0123574
-0.00581737
0.00106439
0.00823876
0.0156534
0.0232518
0.0309732
0.0387512
0.0465142
0.0541846
0.0616791
0.0689084
0.0757782
0.0821895
0.0880399
0.0932246
0.0976386
0.101178
0.103744
0.105242
0.105587
0.104708
0.102544
0.0990522
0.0942026
0.0879827
0.0804741
0.0717657
0.0609161
0.0471351
-0.00176821
-0.0155067
-0.0261048
-0.0344219
-0.0414885
-0.0472891
-0.0518083
-0.0551141
-0.0572796
-0.0583743
-0.0584676
-0.0576277
-0.0559201
-0.053407
-0.0501469
-0.0461945
-0.0416015
-0.0364166
-0.0306863
-0.0244558
-0.0177698
-0.0106733
-0.00321276
0.00456301
0.012602
0.0208482
0.0292403
0.0377115
0.0461889
0.0545924
0.0628353
0.070824
0.0784579
0.0856307
0.0922308
0.098143
0.10325
0.107435
0.110585
0.11259
0.113352
0.112782
0.110809
0.107378
0.102448
0.0960001
0.0881177
0.0788937
0.0673134
0.0525297
-0.0108405
-0.0253735
-0.0365401
-0.0452493
-0.0525962
-0.0585678
-0.0631525
-0.0664277
-0.0684768
-0.0693792
-0.0692142
-0.068059
-0.0659873
-0.0630683
-0.0593667
-0.054942
-0.0498496
-0.0441408
-0.037864
-0.0310652
-0.0237893
-0.0160811
-0.00798619
0.000447546
0.00916914
0.0181233
0.0272495
0.0364808
0.0457433
0.0549554
0.0640275
0.0728614
0.0813508
0.0893815
0.0968325
0.103577
0.109486
0.114426
0.118267
0.120886
0.122163
0.121996
0.120294
0.11699
0.11203
0.105386
0.0971415
0.087393
0.0750463
0.0591927
-0.021425
-0.0367913
-0.0485448
-0.057647
-0.0652609
-0.0713775
-0.07599
-0.0791871
-0.0810645
-0.0817136
-0.081225
-0.0796869
-0.0771824
-0.0737891
-0.0695783
-0.0646154
-0.0589595
-0.0526648
-0.0457815
-0.0383561
-0.0304333
-0.0220572
-0.0132719
-0.00412355
0.00533855
0.0150608
0.0249841
0.0350423
0.0451615
0.0552592
0.0652433
0.0750117
0.0844526
0.093444
0.101855
0.109547
0.116375
0.122192
0.126849
0.130201
0.13211
0.132452
0.131118
0.128021
0.123093
0.116294
0.107706
0.0974264
0.0842753
0.067278
-0.0336525
-0.0498979
-0.0622601
-0.071755
-0.0796191
-0.0858482
-0.0904421
-0.0935034
-0.0951424
-0.0954651
-0.0945759
-0.0925757
-0.0895591
-0.0856132
-0.0808173
-0.0752426
-0.0689531
-0.0620058
-0.0544522
-0.0463393
-0.0377111
-0.02861
-0.0190782
-0.00915921
0.00110047
0.0116499
0.0224324
0.0333836
0.0444309
0.0554915
0.066472
0.0772672
0.0877598
0.0978205
0.107309
0.116072
0.123952
0.130781
0.136391
0.140614
0.143289
0.144266
0.143413
0.140622
0.135803
0.1289
0.119994
0.109181
0.0951861
0.0769636
-0.0476694
-0.0648489
-0.0778448
-0.0877309
-0.0958233
-0.102124
-0.106642
-0.109496
-0.110816
-0.110724
-0.109343
-0.106788
-0.103166
-0.0985781
-0.0931108
-0.0868427
-0.0798424
-0.0721701
-0.0638786
-0.0550147
-0.0456211
-0.0357378
-0.0254038
-0.0146592
-0.00354645
0.00788737
0.0195892
0.031498
0.0435433
0.0556438
0.0677056
0.0796214
0.0912696
0.102514
0.113203
0.123174
0.132248
0.140241
0.146959
0.152211
0.155806
0.157566
0.157329
0.154961
0.150345
0.143406
0.134217
0.122873
0.107993
0.0884556
-0.0636407
-0.0818204
-0.0954797
-0.105754
-0.114045
-0.120365
-0.124735
-0.127295
-0.128196
-0.127584
-0.125601
-0.12238
-0.118047
-0.112712
-0.106475
-0.0994222
-0.0916263
-0.0831509
-0.0740497
-0.0643687
-0.0541485
-0.0434256
-0.0322349
-0.0206115
-0.00859285
0.00377959
0.0164579
0.0293857
0.0424967
0.0557122
0.0689395
0.0820707
0.0949808
0.107528
0.11955
0.130872
0.141298
0.150621
0.158623
0.165082
0.169776
0.172492
0.173033
0.171229
0.166933
0.160043
0.150619
0.138752
0.122945
0.101993
-0.0817542
-0.101015
-0.115372
-0.126028
-0.13448
-0.140752
-0.144883
-0.147039
-0.1474
-0.146138
-0.14342
-0.139404
-0.134232
-0.128031
-0.120913
-0.112972
-0.104287
-0.0949241
-0.0849369
-0.0743704
-0.0632615
-0.0516425
-0.0395425
-0.0269903
-0.0140163
-0.000655138
0.0130523
0.0270564
0.0412965
0.0556986
0.0701734
0.0846138
0.0988934
0.112865
0.12636
0.139187
0.151134
0.161972
0.171455
0.179326
0.185325
0.1892
0.19071
0.189642
0.18581
0.179075
0.169481
0.157109
0.140331
0.117853
-0.102227
-0.122668
-0.137765
-0.14879
-0.157351
-0.163489
-0.167265
-0.16888
-0.168549
-0.166478
-0.162867
-0.157899
-0.15174
-0.144535
-0.136409
-0.127464
-0.117787
-0.107444
-0.0964911
-0.0849683
-0.0729088
-0.0603386
-0.0472796
-0.0337524
-0.0197789
-0.00538453
0.00939878
0.0245301
0.039957
0.0556123
0.0714123
0.0872532
0.103009
0.11853
0.13364
0.148137
0.16179
0.174346
0.185528
0.195042
0.202587
0.207858
0.210566
0.210443
0.207253
0.20081
0.191132
0.178284
0.160491
0.13636
-0.125311
-0.147057
-0.162942
-0.174317
-0.182917
-0.188807
-0.192079
-0.192979
-0.191768
-0.188695
-0.183997
-0.177892
-0.170571
-0.162201
-0.152921
-0.142844
-0.132061
-0.120642
-0.108638
-0.0960871
-0.0830157
-0.0694419
-0.0553785
-0.0408358
-0.025825
-0.0103603
0.00553779
0.0218394
0.0385028
0.0554705
0.072667
0.0899948
0.107331
0.124527
0.1414
0.157737
0.173294
0.187789
0.200915
0.212337
0.221703
0.228652
0.232831
0.233908
0.23158
0.225603
0.215956
0.202677
0.183824
0.157895
-0.151308
-0.174513
-0.191243
-0.202938
-0.211481
-0.216972
-0.219547
-0.219512
-0.217185
-0.212871
-0.206853
-0.199388
-0.190701
-0.18098
-0.170382
-0.15903
-0.147018
-0.134417
-0.121275
-0.107624
-0.0934813
-0.0788558
-0.0637483
-0.0481568
-0.0320793
-0.0155163
0.0015255
0.0190303
0.0369696
0.0552991
0.0739546
0.0928482
0.111864
0.130856
0.149642
0.167999
0.185668
0.202345
0.217688
0.231316
0.242822
0.251779
0.257758
0.260346
0.259157
0.253867
0.244401
0.23076
0.210802
0.182907
-0.180581
-0.205439
-0.223079
-0.235045
-0.243398
-0.248289
-0.249917
-0.248664
-0.244927
-0.239076
-0.231455
-0.222367
-0.212073
-0.200789
-0.188688
-0.175901
-0.162527
-0.148634
-0.134266
-0.119444
-0.104176
-0.0884562
-0.072273
-0.0556088
-0.0384457
-0.020768
-0.00256558
0.0161625
0.0354046
0.0551326
0.0752977
0.0958257
0.116612
0.137518
0.158364
0.178924
0.198927
0.218047
0.235907
0.252079
0.266095
0.277449
0.285624
0.290106
0.290402
0.286085
0.277003
0.263096
0.241993
0.211933
-0.213573
-0.24033
-0.258955
-0.271115
-0.279092
-0.283113
-0.283464
-0.280633
-0.275112
-0.267362
-0.257795
-0.246771
-0.234592
-0.221503
-0.20769
-0.193296
-0.178419
-0.163122
-0.147439
-0.13138
-0.114937
-0.0980908
-0.0808105
-0.0630614
-0.0448069
-0.0260119
-0.00664675
0.0133096
0.0338657
0.0550135
0.0767237
0.0989404
0.121576
0.144504
0.167553
0.190502
0.213069
0.234911
0.25562
0.274719
0.29167
0.305883
0.316731
0.323579
0.325797
0.322823
0.314396
0.300365
0.278078
0.245616
-0.25084
-0.27981
-0.299499
-0.311729
-0.319068
-0.321852
-0.320493
-0.315617
-0.307847
-0.29775
-0.285824
-0.272496
-0.258111
-0.242942
-0.227192
-0.211007
-0.19448
-0.177666
-0.160584
-0.143228
-0.125573
-0.107578
-0.0891931
-0.0703616
-0.0510253
-0.0311272
-0.0106145
0.0105569
0.0324196
0.0549896
0.0782618
0.102204
0.126751
0.151796
0.177184
0.202701
0.228069
0.252931
0.276851
0.299305
0.319684
0.337299
0.351399
0.361198
0.365896
0.364749
0.357341
0.343391
0.319896
0.284742
-0.293091
-0.324669
-0.345502
-0.35761
-0.363935
-0.364981
-0.361336
-0.353816
-0.343209
-0.330215
-0.315438
-0.299375
-0.282418
-0.264867
-0.246935
-0.228765
-0.210442
-0.192003
-0.173448
-0.15475
-0.135858
-0.116709
-0.0972288
-0.0773354
-0.0569461
-0.0359784
-0.0143538
0.00799859
0.0311387
0.055111
0.0799395
0.105622
0.132121
0.159359
0.187206
0.215466
0.243871
0.272064
0.299588
0.325875
0.350246
0.371906
0.389961
0.403442
0.411332
0.41265
0.406763
0.39319
0.368481
0.33028
-0.341242
-0.375937
-0.397979
-0.409659
-0.414429
-0.413045
-0.406349
-0.395409
-0.381228
-0.36467
-0.346456
-0.327161
-0.307224
-0.286963
-0.266593
-0.246246
-0.225986
-0.205827
-0.185741
-0.165671
-0.145539
-0.125251
-0.104706
-0.0837929
-0.0624013
-0.0404203
-0.0177428
0.00573225
0.0300956
0.0554244
0.0817769
0.109186
0.137653
0.167136
0.197539
0.2287
0.260374
0.292215
0.323761
0.354412
0.383421
0.409883
0.432746
0.450823
0.462826
0.467459
0.463785
0.451027
0.425138
0.383446
-0.396509
-0.434972
-0.458246
-0.469008
-0.471435
-0.466662
-0.455892
-0.440534
-0.421859
-0.400929
-0.378593
-0.355505
-0.332141
-0.308826
-0.285761
-0.263053
-0.240735
-0.218783
-0.197131
-0.175687
-0.154337
-0.132953
-0.111399
-0.0895345
-0.0672171
-0.0443052
-0.0206599
0.00385216
0.0293562
0.0559661
0.0837791
0.112871
0.143287
0.175032
0.20806
0.242255
0.277412
0.313219
0.349224
0.384816
0.419195
0.45135
0.480055
0.503876
0.521186
0.530279
0.52979
0.5185
0.491542
0.445798
-0.460542
-0.503602
-0.528029
-0.537093
-0.536018
-0.526518
-0.510308
-0.489246
-0.46494
-0.438672
-0.411428
-0.383929
-0.356666
-0.32995
-0.303949
-0.278724
-0.254256
-0.230472
-0.207257
-0.184472
-0.161959
-0.139552
-0.117078
-0.0943603
-0.0712231
-0.0474915
-0.0229932
0.00244013
0.0289709
0.0567528
0.0859275
0.116619
0.148925
0.182911
0.218591
0.255914
0.29474
0.334812
0.375721
0.416873
0.457438
0.496321
0.532121
0.563125
0.5873
0.602408
0.606487
0.597656
0.569878
0.519377
-0.535632
-0.584338
-0.609632
-0.615733
-0.609436
-0.593335
-0.569862
-0.541457
-0.510126
-0.477392
-0.444362
-0.411792
-0.380158
-0.349719
-0.320579
-0.292725
-0.266066
-0.240461
-0.215732
-0.191683
-0.168107
-0.144791
-0.12152
-0.0980815
-0.0742633
-0.0498555
-0.024651
0.00155496
0.0289637
0.0577718
0.0881688
0.120333
0.154424
0.190576
0.228881
0.269374
0.312003
0.356603
0.402846
0.450196
0.497843
0.54464
0.589037
0.629028
0.662106
0.685356
0.695993
0.691152
0.663072
0.606931
-0.625065
-0.680707
-0.706146
-0.707224
-0.69314
-0.667811
-0.634653
-0.596834
-0.556808
-0.516324
-0.476562
-0.438259
-0.401816
-0.367392
-0.334979
-0.304458
-0.275639
-0.248291
-0.22216
-0.196982
-0.172491
-0.148424
-0.124523
-0.100534
-0.0762096
-0.0513036
-0.0255739
0.00122081
0.0293216
0.0589694
0.0904044
0.123863
0.159576
0.197756
0.23859
0.282219
0.328714
0.378038
0.429996
0.484173
0.539846
0.595888
0.650656
0.701875
0.746517
0.780834
0.800934
0.802486
0.775133
0.712286
-0.733725
-0.797766
-0.821763
-0.814432
-0.788715
-0.750484
-0.704457
-0.654661
-0.603993
-0.554355
-0.506906
-0.462264
-0.420667
-0.382101
-0.346393
-0.313274
-0.282423
-0.253498
-0.226153
-0.200047
-0.174849
-0.150242
-0.125922
-0.101594
-0.0769755
-0.0517853
-0.0257472
0.00141574
0.0299834
0.060241
0.0924805
0.127001
0.164105
0.204098
0.247276
0.29391
0.344225
0.398359
0.456316
0.517881
0.582521
0.649245
0.71643
0.781621
0.84128
0.890692
0.924523
0.936307
0.911692
0.840988
-0.86918
-0.942936
-0.962163
-0.940825
-0.89771
-0.841484
-0.77848
-0.713623
-0.650143
-0.589922
-0.533919
-0.482479
-0.435554
-0.392863
-0.353998
-0.318492
-0.285862
-0.255634
-0.227354
-0.200597
-0.174965
-0.150083
-0.125603
-0.101191
-0.0765292
-0.0513051
-0.0252113
0.00206196
0.030831
0.0614231
0.0941809
0.129465
0.167657
0.209158
0.254385
0.303763
0.357702
0.416571
0.480641
0.550006
0.624459
0.703317
0.785183
0.867618
0.946708
1.01673
1.07059
1.09881
1.08086
1.00145
-1.04375
-1.12731
-1.13498
-1.09037
-1.02127
-0.940108
-0.854975
-0.771522
-0.692988
-0.620896
-0.555718
-0.497301
-0.445149
-0.398599
-0.356931
-0.319434
-0.28543
-0.254295
-0.225462
-0.198416
-0.17269
-0.147856
-0.123523
-0.0993223
-0.0749049
-0.0499323
-0.02407
0.00301983
0.031685
0.0622906
0.0952256
0.13091
0.169801
0.2124
0.259252
0.31095
0.368122
0.431416
0.501452
0.578752
0.663614
0.755913
0.854791
0.958201
1.06222
1.16032
1.24348
1.2982
1.29461
1.20716
-1.27869
-1.36777
-1.3501
-1.26698
-1.15934
-1.04405
-0.930661
-0.824887
-0.729293
-0.644472
-0.569978
-0.504864
-0.447987
-0.39818
-0.35434
-0.315465
-0.280665
-0.249159
-0.220261
-0.193372
-0.16796
-0.143551
-0.119716
-0.0960601
-0.0722093
-0.0478049
-0.0224925
0.00408702
0.0323059
0.0625595
0.0952759
0.130927
0.17004
0.213209
0.261111
0.314511
0.374275
0.44137
0.51684
0.601766
0.697158
0.803766
0.921738
1.05005
1.1855
1.32149
1.4474
1.545
1.57089
1.48108
-1.61272
-1.69002
-1.61919
-1.4728
-1.30885
-1.14801
-0.999768
-0.868402
-0.754565
-0.657045
-0.573909
-0.503062
-0.442513
-0.390481
-0.345425
-0.306035
-0.271206
-0.240002
-0.211636
-0.18543
-0.160803
-0.137245
-0.114301
-0.0915547
-0.0686207
-0.0451278
-0.0207102
0.00500316
0.0323996
0.0618945
0.0939439
0.129059
0.167824
0.210915
0.259123
0.31338
0.37479
0.444656
0.524501
0.616074
0.721309
0.842199
0.980504
1.13715
1.31101
1.49704
1.68462
1.85142
1.93672
1.86455
-2.11658
-2.13152
-1.9534
-1.70515
-1.46121
-1.24199
-1.05314
-0.894546
-0.763006
-0.654324
-0.564424
-0.489729
-0.42724
-0.374507
-0.329548
-0.290761
-0.256848
-0.226754
-0.199606
-0.174679
-0.151358
-0.129113
-0.107477
-0.0860297
-0.0643818
-0.0421612
-0.0190017
0.00546892
0.0316414
0.0599381
0.0908281
0.124845
0.162608
0.204851
0.252454
0.306485
0.368258
0.439391
0.521889
0.618226
0.731416
0.865048
1.02318
1.2099
1.42825
1.6779
1.95227
2.22894
2.43079
2.43179
-2.91876
-2.74192
-2.35909
-1.95415
-1.60137
-1.31137
-1.07896
-0.894664
-0.74864
-0.632371
-0.539044
-0.463384
-0.401357
-0.34989
-0.306624
-0.269736
-0.237801
-0.209688
-0.184486
-0.161451
-0.139962
-0.11949
-0.0995757
-0.0798067
-0.0598035
-0.0392055
-0.0176574
0.00520213
0.0297541
0.0564127
0.0856422
0.117977
0.154045
0.194602
0.240576
0.293118
0.353684
0.42414
0.506898
0.605107
0.722896
0.865666
1.04038
1.25572
1.52173
1.84812
2.23972
2.68364
3.10328
3.31473
-4.30825
-3.58022
-2.81234
-2.18396
-1.69681
-1.33096
-1.05981
-0.857596
-0.704687
-0.587266
-0.495647
-0.423009
-0.364507
-0.316656
-0.2769
-0.24333
-0.214491
-0.189254
-0.166727
-0.146188
-0.127041
-0.108784
-0.0909816
-0.0732475
-0.0552258
-0.036579
-0.0169753
0.00392357
0.0264748
0.0510687
0.0781448
0.108212
0.141877
0.179874
0.223117
0.272766
0.330314
0.39773
0.47765
0.573678
0.690817
0.836123
1.01962
1.25558
1.56433
1.97281
2.50866
3.19005
4.01471
4.80835
-7.04618
-4.67303
-3.13912
-2.23598
-1.6356
-1.22724
-0.948584
-0.753098
-0.611315
-0.505546
-0.424716
-0.361602
-0.311358
-0.270635
-0.23705
-0.208854
-0.184737
-0.163689
-0.144916
-0.127779
-0.111754
-0.0963975
-0.081326
-0.0661987
-0.0507028
-0.0345408
-0.0174205
0.000956194
0.0209042
0.0427679
0.0669353
0.0938568
0.124069
0.158226
0.197145
0.241869
0.293756
0.354623
0.42695
0.514226
0.621498
0.756286
0.930132
1.16141
1.48067
1.93682
2.59636
3.57207
5.19435
7.67834
-11.6813
-5.75832
-2.98805
-1.87147
-1.28243
-0.928414
-0.707077
-0.559959
-0.455937
-0.379095
-0.32055
-0.274862
-0.238493
-0.209025
-0.184733
-0.164341
-0.146882
-0.131602
-0.117901
-0.10529
-0.093364
-0.0817768
-0.0702269
-0.058444
-0.0461785
-0.0331927
-0.0192524
-0.00411852
0.0124603
0.030758
0.0510814
0.0737841
0.0992841
0.128087
0.160818
0.198269
0.24146
0.291748
0.350972
0.421719
0.507764
0.614887
0.75246
0.937012
1.2005
1.6044
2.26057
3.47179
6.35797
12.4032
)
;

boundaryField
{
    movingWall
    {
        type            zeroGradient;
    }
    fixedWalls
    {
        type            zeroGradient;
    }
    frontAndBack
    {
        type            empty;
    }
}


// ************************************************************************* //
