/*--------------------------------*- C++ -*----------------------------------*\
| =========                 |                                                 |
| \\      /  F ield         | OpenFOAM: The Open Source CFD Toolbox           |
|  \\    /   O peration     | Version:  v2012                                 |
|   \\  /    A nd           | Website:  www.openfoam.com                      |
|    \\/     M anipulation  |                                                 |
\*---------------------------------------------------------------------------*/
FoamFile
{
    version     2.0;
    format      ascii;
    class       surfaceScalarField;
    location    "0.1";
    object      phi;
}
// * * * * * * * * * * * * * * * * * * * * * * * * * * * * * * * * * * * * * //

dimensions      [0 3 -1 0 0 0 0];
oriented        oriented;


internalField   nonuniform List<scalar> 
4900
(
1.16784e-09
-1.16769e-09
2.38692e-09
-1.21906e-09
2.4793e-09
-9.23308e-11
1.01233e-09
1.46688e-09
-2.09317e-09
3.10543e-09
-6.75004e-09
4.65687e-09
-1.27899e-08
6.03988e-09
-2.00074e-08
7.21754e-09
-2.81833e-08
8.17589e-09
-3.70964e-08
8.913e-09
-4.653e-08
9.43354e-09
-5.6276e-08
9.74595e-09
-6.61369e-08
9.861e-09
-7.59277e-08
9.79078e-09
-8.54759e-08
9.54822e-09
-9.46227e-08
9.14675e-09
-1.03223e-07
8.60005e-09
-1.11145e-07
7.9219e-09
-1.18271e-07
7.12624e-09
-1.24498e-07
6.22702e-09
-1.29736e-07
5.23836e-09
-1.33911e-07
4.17462e-09
-1.36961e-07
3.05027e-09
-1.38841e-07
1.88018e-09
-1.39521e-07
6.79603e-10
-1.38985e-07
-5.35816e-10
-1.37235e-07
-1.74996e-09
-1.34289e-07
-2.94611e-09
-1.30182e-07
-4.10718e-09
-1.24966e-07
-5.21574e-09
-1.18712e-07
-6.25393e-09
-1.11509e-07
-7.20363e-09
-1.03462e-07
-8.04675e-09
-9.46964e-08
-8.76542e-09
-8.53544e-08
-9.3421e-09
-7.55945e-08
-9.75991e-09
-6.55913e-08
-1.00031e-08
-5.55341e-08
-1.00571e-08
-4.56247e-08
-9.90943e-09
-3.60753e-08
-9.54943e-09
-2.71058e-08
-8.9695e-09
-1.89399e-08
-8.16582e-09
-1.18002e-08
-7.13976e-09
-5.89976e-09
-5.90045e-09
-1.42986e-09
-4.46992e-09
1.46378e-09
-2.89361e-09
2.72446e-09
-1.26064e-09
2.46618e-09
2.58267e-10
1.16182e-09
1.30433e-09
1.16182e-09
1.23355e-09
-2.4013e-09
1.42182e-09
-1.40731e-09
-1.16711e-09
2.49663e-09
-7.32917e-09
7.62904e-09
-1.73104e-08
1.30867e-08
-3.10033e-08
1.83496e-08
-4.80857e-08
2.31223e-08
-6.81132e-08
2.72451e-08
-9.05759e-08
3.06387e-08
-1.14935e-07
3.3272e-08
-1.40644e-07
3.51433e-08
-1.67169e-07
3.627e-08
-1.93989e-07
3.66817e-08
-2.20614e-07
3.64156e-08
-2.4658e-07
3.55144e-08
-2.71458e-07
3.40241e-08
-2.94851e-07
3.19932e-08
-3.16401e-07
2.94715e-08
-3.35784e-07
2.65102e-08
-3.52718e-07
2.31612e-08
-3.66957e-07
1.94774e-08
-3.78296e-07
1.55127e-08
-3.86568e-07
1.13222e-08
-3.91649e-07
6.96195e-09
-3.9346e-07
2.48968e-09
-3.9196e-07
-2.03539e-09
-3.87157e-07
-6.55248e-09
-3.79104e-07
-1.09992e-08
-3.679e-07
-1.53116e-08
-3.53691e-07
-1.94245e-08
-3.36673e-07
-2.32718e-08
-3.1709e-07
-2.67871e-08
-2.95232e-07
-2.99041e-08
-2.7144e-07
-3.25579e-08
-2.46097e-07
-3.46852e-08
-2.1963e-07
-3.62263e-08
-1.92507e-07
-3.7126e-08
-1.6523e-07
-3.73349e-08
-1.38328e-07
-3.68114e-08
-1.12353e-07
-3.5524e-08
-8.78682e-08
-3.34542e-08
-6.54338e-08
-3.06002e-08
-4.55903e-08
-2.69834e-08
-2.88323e-08
-2.26584e-08
-1.55723e-08
-1.77299e-08
-6.08302e-09
-1.23829e-08
-4.0869e-10
-6.93497e-09
1.77089e-09
-1.92133e-09
1.3163e-09
1.75894e-09
2.47813e-09
1.4888e-10
-2.55018e-09
-2.38944e-09
1.1309e-09
-9.26694e-09
9.37407e-09
-2.13094e-08
1.96714e-08
-3.87782e-08
3.05556e-08
-6.15281e-08
4.10995e-08
-8.91339e-08
5.07282e-08
-1.20991e-07
5.91022e-08
-1.56386e-07
6.60334e-08
-1.94546e-07
7.14321e-08
-2.34676e-07
7.52733e-08
-2.75981e-07
7.75757e-08
-3.17687e-07
7.83874e-08
-3.59049e-07
7.7777e-08
-3.99361e-07
7.58271e-08
-4.37967e-07
7.26296e-08
-4.74257e-07
6.82834e-08
-5.07678e-07
6.28924e-08
-5.37731e-07
5.65637e-08
-5.63978e-07
4.94078e-08
-5.86038e-07
4.15374e-08
-6.03593e-07
3.30679e-08
-6.16388e-07
2.41173e-08
-6.24233e-07
1.48064e-08
-6.27002e-07
5.2592e-09
-6.2464e-07
-4.39729e-09
-6.1716e-07
-1.40327e-08
-6.04646e-07
-2.35136e-08
-5.87254e-07
-3.27036e-08
-5.65214e-07
-4.14643e-08
-5.3883e-07
-4.96555e-08
-5.0848e-07
-5.7137e-08
-4.74615e-07
-6.37699e-08
-4.37754e-07
-6.9418e-08
-3.98489e-07
-7.39505e-08
-3.57471e-07
-7.72445e-08
-3.15409e-07
-7.91874e-08
-2.73063e-07
-7.96811e-08
-2.31229e-07
-7.86455e-08
-1.90729e-07
-7.60239e-08
-1.52394e-07
-7.17897e-08
-1.17039e-07
-6.59547e-08
-8.54397e-08
-5.85829e-08
-5.82889e-08
-4.98092e-08
-3.61488e-08
-3.98699e-08
-1.93794e-08
-2.91523e-08
-8.04278e-09
-1.82716e-08
-1.78344e-09
-8.18066e-09
3.2001e-10
-3.44516e-10
2.79812e-09
-1.3652e-09
-1.18496e-09
-7.44876e-09
7.21455e-09
-1.95018e-08
2.14272e-08
-3.81564e-08
3.83259e-08
-6.35547e-08
5.59539e-08
-9.54506e-08
7.29954e-08
-1.33307e-07
8.8585e-08
-1.76385e-07
1.02179e-07
-2.23808e-07
1.13457e-07
-2.74623e-07
1.22247e-07
-3.27838e-07
1.28488e-07
-3.82453e-07
1.32191e-07
-4.37485e-07
1.33419e-07
-4.91983e-07
1.32275e-07
-5.45042e-07
1.28886e-07
-5.95813e-07
1.23401e-07
-6.4351e-07
1.1598e-07
-6.87414e-07
1.06796e-07
-7.26876e-07
9.60263e-08
-7.61326e-07
8.38572e-08
-7.90267e-07
7.04792e-08
-8.13287e-07
5.60879e-08
-8.30054e-07
4.08837e-08
-8.4032e-07
2.5072e-08
-8.43924e-07
8.86372e-09
-8.40796e-07
-7.52535e-09
-8.30955e-07
-2.3874e-08
-8.14512e-07
-3.99559e-08
-7.91675e-07
-5.55408e-08
-7.62745e-07
-7.03948e-08
-7.28118e-07
-8.42825e-08
-6.88286e-07
-9.69686e-08
-6.43835e-07
-1.08221e-07
-5.9544e-07
-1.17813e-07
-5.43862e-07
-1.25528e-07
-4.89942e-07
-1.31165e-07
-4.34589e-07
-1.3454e-07
-3.78773e-07
-1.35497e-07
-3.23508e-07
-1.3391e-07
-2.69835e-07
-1.29697e-07
-2.18796e-07
-1.22828e-07
-1.71411e-07
-1.1334e-07
-1.28637e-07
-1.01357e-07
-9.13279e-08
-8.71182e-08
-6.01757e-08
-7.10221e-08
-3.56425e-08
-5.36855e-08
-1.78769e-08
-3.60373e-08
-6.62191e-09
-1.94356e-08
-1.12319e-09
-5.84327e-09
1.67491e-09
-2.98773e-09
1.80272e-09
-1.29665e-08
1.71932e-08
-3.06382e-08
3.90989e-08
-5.63073e-08
6.39949e-08
-8.98968e-08
8.95435e-08
-1.30998e-07
1.14097e-07
-1.78934e-07
1.36521e-07
-2.32826e-07
1.56071e-07
-2.91654e-07
1.72285e-07
-3.54312e-07
1.84904e-07
-4.19642e-07
1.93818e-07
-4.86477e-07
1.99026e-07
-5.53661e-07
2.00604e-07
-6.20075e-07
1.98689e-07
-6.84648e-07
1.93459e-07
-7.46371e-07
1.85124e-07
-8.04308e-07
1.73917e-07
-8.576e-07
1.60089e-07
-9.05476e-07
1.43902e-07
-9.4725e-07
1.25631e-07
-9.82331e-07
1.0556e-07
-1.01022e-06
8.39798e-08
-1.03053e-06
6.11901e-08
-1.04296e-06
3.74978e-08
-1.04731e-06
1.32179e-08
-1.04351e-06
-1.1327e-08
-1.03158e-06
-3.58064e-08
-1.01165e-06
-5.98835e-08
-9.83973e-07
-8.3215e-08
-9.48914e-07
-1.05454e-07
-9.06946e-07
-1.26251e-07
-8.58656e-07
-1.45259e-07
-8.04742e-07
-1.62134e-07
-7.4601e-07
-1.76545e-07
-6.83364e-07
-1.88174e-07
-6.17801e-07
-1.96729e-07
-5.50398e-07
-2.01944e-07
-4.82299e-07
-2.03596e-07
-4.14698e-07
-2.01511e-07
-3.48814e-07
-1.95581e-07
-2.8587e-07
-1.85773e-07
-2.27052e-07
-1.72158e-07
-1.73478e-07
-1.54931e-07
-1.26147e-07
-1.34449e-07
-8.58875e-08
-1.11282e-07
-5.32947e-08
-8.62783e-08
-2.86683e-08
-6.06637e-08
-1.1951e-08
-3.61529e-08
-2.68581e-09
-1.51085e-08
-1.0109e-09
-4.5875e-09
6.39022e-09
-1.85381e-08
3.11438e-08
-4.19824e-08
6.25432e-08
-7.48306e-08
9.68431e-08
-1.16722e-07
1.31435e-07
-1.67035e-07
1.64409e-07
-2.24919e-07
1.94405e-07
-2.89343e-07
2.20495e-07
-3.59143e-07
2.42085e-07
-4.33066e-07
2.58828e-07
-5.09814e-07
2.70566e-07
-5.88072e-07
2.77283e-07
-6.6654e-07
2.79072e-07
-7.43954e-07
2.76103e-07
-8.19104e-07
2.68609e-07
-8.9085e-07
2.56869e-07
-9.58128e-07
2.41195e-07
-1.01996e-06
2.21925e-07
-1.07548e-06
1.99418e-07
-1.1239e-06
1.74048e-07
-1.16454e-06
1.46204e-07
-1.19685e-06
1.16287e-07
-1.22037e-06
8.47085e-08
-1.23476e-06
5.18917e-08
-1.23981e-06
1.82705e-08
-1.23543e-06
-1.57111e-08
-1.22164e-06
-4.95986e-08
-1.19859e-06
-8.29287e-08
-1.16658e-06
-1.1523e-07
-1.126e-06
-1.46028e-07
-1.07741e-06
-1.74843e-07
-1.02147e-06
-2.01201e-07
-9.58968e-07
-2.24634e-07
-8.90823e-07
-2.44691e-07
-8.18056e-07
-2.60941e-07
-7.41796e-07
-2.72989e-07
-6.6326e-07
-2.80479e-07
-5.83741e-07
-2.83115e-07
-5.04584e-07
-2.80668e-07
-4.27165e-07
-2.73e-07
-3.52858e-07
-2.6008e-07
-2.83004e-07
-2.42011e-07
-2.18872e-07
-2.19063e-07
-1.61608e-07
-1.91713e-07
-1.12195e-07
-1.60695e-07
-7.13973e-08
-1.27076e-07
-3.97159e-08
-9.23451e-08
-1.73587e-08
-5.85101e-08
-4.23339e-09
-2.82338e-08
-5.24427e-09
-6.11392e-09
1.2504e-08
-2.39732e-08
4.9003e-08
-5.31725e-08
9.17426e-08
-9.32091e-08
1.3688e-07
-1.43404e-07
1.8163e-07
-2.02885e-07
2.23891e-07
-2.70602e-07
2.62121e-07
-3.4535e-07
2.95244e-07
-4.25813e-07
3.22548e-07
-5.10596e-07
3.43611e-07
-5.98264e-07
3.58233e-07
-6.87369e-07
3.66389e-07
-7.76485e-07
3.68187e-07
-8.64222e-07
3.6384e-07
-9.49252e-07
3.5364e-07
-1.03032e-06
3.37938e-07
-1.10626e-06
3.17134e-07
-1.176e-06
2.91662e-07
-1.23856e-06
2.61985e-07
-1.2931e-06
2.28588e-07
-1.33887e-06
1.91975e-07
-1.37525e-06
1.52666e-07
-1.40174e-06
1.11198e-07
-1.41797e-06
6.81215e-08
-1.4237e-06
2.40006e-08
-1.41883e-06
-2.05866e-08
-1.40338e-06
-6.50491e-08
-1.37752e-06
-1.08785e-07
-1.34157e-06
-1.51182e-07
-1.29597e-06
-1.91623e-07
-1.24133e-06
-2.29488e-07
-1.17837e-06
-2.64163e-07
-1.10796e-06
-2.95044e-07
-1.0311e-06
-3.21546e-07
-9.48925e-07
-3.43117e-07
-8.62667e-07
-3.59247e-07
-7.73665e-07
-3.69481e-07
-6.83338e-07
-3.73441e-07
-5.93168e-07
-3.70839e-07
-5.04667e-07
-3.615e-07
-4.19356e-07
-3.45391e-07
-3.38722e-07
-3.22645e-07
-2.64185e-07
-2.936e-07
-1.97054e-07
-2.58844e-07
-1.38483e-07
-2.19266e-07
-8.94366e-08
-1.76123e-07
-5.0657e-08
-1.31125e-07
-2.26518e-08
-8.65154e-08
-5.71335e-09
-4.51722e-08
-1.09576e-08
-7.5556e-09
2.00597e-08
-2.92017e-08
7.0649e-08
-6.40514e-08
1.26592e-07
-1.11197e-07
1.84025e-07
-1.69628e-07
2.40061e-07
-2.382e-07
2.92463e-07
-3.15638e-07
3.39559e-07
-4.00551e-07
3.80156e-07
-4.91455e-07
4.13452e-07
-5.86809e-07
4.38966e-07
-6.85043e-07
4.56467e-07
-7.84585e-07
4.65931e-07
-8.83889e-07
4.67491e-07
-9.81456e-07
4.61406e-07
-1.07585e-06
4.48035e-07
-1.16572e-06
4.27811e-07
-1.24982e-06
4.01226e-07
-1.32697e-06
3.68818e-07
-1.39615e-06
3.31163e-07
-1.45643e-06
2.88864e-07
-1.507e-06
2.42549e-07
-1.5472e-06
1.92868e-07
-1.5765e-06
1.40491e-07
-1.59448e-06
8.61043e-08
-1.60089e-06
3.04134e-08
-1.59562e-06
-2.586e-08
-1.57869e-06
-8.19785e-08
-1.55028e-06
-1.37191e-07
-1.51073e-06
-1.90734e-07
-1.46051e-06
-2.41839e-07
-1.40027e-06
-2.89733e-07
-1.33078e-06
-3.33652e-07
-1.25298e-06
-3.72843e-07
-1.16795e-06
-4.0658e-07
-1.07689e-06
-4.34175e-07
-9.81141e-07
-4.54995e-07
-8.82144e-07
-4.68478e-07
-7.81434e-07
-4.74151e-07
-6.80614e-07
-4.71659e-07
-5.81329e-07
-4.60786e-07
-4.85238e-07
-4.41482e-07
-3.93978e-07
-4.13905e-07
-3.09128e-07
-3.7845e-07
-2.32172e-07
-3.35801e-07
-1.6446e-07
-2.86977e-07
-1.07182e-07
-2.33401e-07
-6.13411e-08
-1.76965e-07
-2.77618e-08
-1.20095e-07
-7.11393e-09
-6.582e-08
-1.80715e-08
-8.9188e-09
2.89785e-08
-3.42166e-08
9.59467e-08
-7.45794e-08
1.66955e-07
-1.28715e-07
2.38161e-07
-1.95281e-07
3.06626e-07
-2.72849e-07
3.70032e-07
-3.59906e-07
4.26616e-07
-4.54855e-07
4.75104e-07
-5.56037e-07
5.14635e-07
-6.61758e-07
5.44687e-07
-7.7031e-07
5.65019e-07
-8.79996e-07
5.75618e-07
-9.8916e-07
5.76655e-07
-1.0962e-06
5.68446e-07
-1.19959e-06
5.51423e-07
-1.29788e-06
5.26109e-07
-1.38976e-06
4.93097e-07
-1.47398e-06
4.53039e-07
-1.54944e-06
4.06627e-07
-1.61517e-06
3.54592e-07
-1.67031e-06
2.97694e-07
-1.71416e-06
2.36719e-07
-1.74615e-06
1.72476e-07
-1.76584e-06
1.05798e-07
-1.77297e-06
3.75373e-08
-1.76739e-06
-3.14333e-08
-1.74915e-06
-1.00222e-07
-1.71842e-06
-1.6792e-07
-1.67555e-06
-2.33605e-07
-1.62104e-06
-2.96347e-07
-1.55556e-06
-3.55213e-07
-1.47994e-06
-4.09276e-07
-1.39515e-06
-4.57627e-07
-1.30235e-06
-4.99388e-07
-1.2028e-06
-5.33724e-07
-1.09792e-06
-5.59869e-07
-9.89262e-07
-5.77139e-07
-8.78452e-07
-5.84961e-07
-7.67214e-07
-5.82898e-07
-6.57322e-07
-5.70678e-07
-5.50575e-07
-5.48229e-07
-4.48767e-07
-5.15714e-07
-3.53646e-07
-4.73571e-07
-2.66887e-07
-4.2256e-07
-1.90054e-07
-3.6381e-07
-1.24578e-07
-2.98877e-07
-7.17421e-08
-2.29801e-07
-3.26873e-08
-1.59149e-07
-8.44259e-09
-9.00648e-08
-2.65142e-08
-1.02166e-08
3.91952e-08
-3.90416e-08
1.24772e-07
-8.47808e-08
2.12694e-07
-1.45781e-07
2.99162e-07
-2.20373e-07
3.81217e-07
-3.06842e-07
4.56501e-07
-4.03425e-07
5.23198e-07
-5.08309e-07
5.79989e-07
-6.19651e-07
6.25977e-07
-7.35593e-07
6.60629e-07
-8.54286e-07
6.83712e-07
-9.73911e-07
6.95243e-07
-1.0927e-06
6.95444e-07
-1.20896e-06
6.84701e-07
-1.32106e-06
6.6353e-07
-1.42751e-06
6.32553e-07
-1.52688e-06
5.92474e-07
-1.61791e-06
5.44063e-07
-1.69942e-06
4.8814e-07
-1.7704e-06
4.25568e-07
-1.82995e-06
3.57246e-07
-1.87733e-06
2.84102e-07
-1.91195e-06
2.07091e-07
-1.93334e-06
1.27195e-07
-1.94123e-06
4.54205e-08
-1.93546e-06
-3.72024e-08
-1.91606e-06
-1.19622e-07
-1.88321e-06
-2.00766e-07
-1.83727e-06
-2.79547e-07
-1.77875e-06
-3.54867e-07
-1.70834e-06
-4.25622e-07
-1.6269e-06
-4.90718e-07
-1.53545e-06
-5.49077e-07
-1.43518e-06
-5.99659e-07
-1.32743e-06
-6.41473e-07
-1.21369e-06
-6.73606e-07
-1.09559e-06
-6.95241e-07
-9.74861e-07
-7.05689e-07
-8.53341e-07
-7.04418e-07
-7.32932e-07
-6.91087e-07
-6.15581e-07
-6.65581e-07
-5.03241e-07
-6.28053e-07
-3.97847e-07
-5.78965e-07
-3.01276e-07
-5.1913e-07
-2.15324e-07
-4.49763e-07
-1.41677e-07
-3.72525e-07
-8.19041e-08
-2.89573e-07
-3.74615e-08
-2.03592e-07
-9.71494e-09
-1.17811e-07
-3.62291e-08
-1.14643e-08
5.06594e-08
-4.37145e-08
1.57022e-07
-9.47125e-08
2.63692e-07
-1.62465e-07
3.66914e-07
-2.44985e-07
4.63737e-07
-3.40272e-07
5.51788e-07
-4.46304e-07
6.29231e-07
-5.61046e-07
6.94731e-07
-6.82461e-07
7.47391e-07
-8.0852e-07
7.86688e-07
-9.37231e-07
8.12422e-07
-1.06665e-06
8.2466e-07
-1.19489e-06
8.23691e-07
-1.32018e-06
8.09985e-07
-1.4408e-06
7.84156e-07
-1.55519e-06
7.46937e-07
-1.66187e-06
6.99152e-07
-1.7595e-06
6.41698e-07
-1.84689e-06
5.75528e-07
-1.92297e-06
5.01646e-07
-1.98681e-06
4.21093e-07
-2.03766e-06
3.34944e-07
-2.07487e-06
2.44305e-07
-2.09799e-06
1.50312e-07
-2.1067e-06
5.41285e-08
-2.10084e-06
-4.30553e-08
-2.08044e-06
-1.40024e-07
-2.04567e-06
-2.35537e-07
-1.99688e-06
-3.28336e-07
-1.9346e-06
-4.17148e-07
-1.85953e-06
-5.00696e-07
-1.77254e-06
-5.77707e-07
-1.67469e-06
-6.46928e-07
-1.5672e-06
-7.07144e-07
-1.45148e-06
-7.57197e-07
-1.32907e-06
-7.96013e-07
-1.20168e-06
-8.22629e-07
-1.07115e-06
-8.36223e-07
-9.39416e-07
-8.36152e-07
-8.08518e-07
-8.21984e-07
-6.80554e-07
-7.93545e-07
-5.57651e-07
-7.50956e-07
-4.41938e-07
-6.94678e-07
-3.35512e-07
-6.25556e-07
-2.4041e-07
-5.44864e-07
-1.58589e-07
-4.54346e-07
-9.1909e-08
-3.56254e-07
-4.21339e-08
-2.53367e-07
-1.09495e-08
-1.48996e-07
-4.71786e-08
-1.26769e-08
6.33364e-08
-4.8278e-08
1.92623e-07
-1.04446e-07
3.19861e-07
-1.78866e-07
4.41334e-07
-2.69239e-07
5.54111e-07
-3.73279e-07
6.55827e-07
-4.88704e-07
7.44656e-07
-6.13249e-07
8.19276e-07
-7.44673e-07
8.78815e-07
-8.80775e-07
9.22791e-07
-1.01941e-06
9.51059e-07
-1.15851e-06
9.63758e-07
-1.29608e-06
9.61265e-07
-1.43025e-06
9.44152e-07
-1.55924e-06
9.13145e-07
-1.6814e-06
8.69101e-07
-1.79522e-06
8.12972e-07
-1.89932e-06
7.45792e-07
-1.99245e-06
6.68657e-07
-2.07351e-06
5.82714e-07
-2.14157e-06
4.89154e-07
-2.19583e-06
3.892e-07
-2.23564e-06
2.84115e-07
-2.26052e-06
1.75187e-07
-2.27013e-06
6.37413e-08
-2.26431e-06
-4.88712e-08
-2.24307e-06
-1.61268e-07
-2.20657e-06
-2.72039e-07
-2.15515e-06
-3.79751e-07
-2.08935e-06
-4.82955e-07
-2.00985e-06
-5.80189e-07
-1.91756e-06
-6.69997e-07
-1.81355e-06
-7.50942e-07
-1.69907e-06
-8.21625e-07
-1.57556e-06
-8.80706e-07
-1.44463e-06
-9.26937e-07
-1.30807e-06
-9.59191e-07
-1.1678e-06
-9.76496e-07
-1.02588e-06
-9.78074e-07
-8.84473e-07
-9.63386e-07
-7.45847e-07
-9.32172e-07
-6.12306e-07
-8.84496e-07
-4.86188e-07
-8.20796e-07
-3.69822e-07
-7.41923e-07
-2.65502e-07
-6.49184e-07
-1.75461e-07
-5.44386e-07
-1.01857e-07
-4.29858e-07
-4.67613e-08
-3.08463e-07
-1.21654e-08
-1.83592e-07
-5.9344e-08
-1.38688e-08
7.72052e-08
-5.27748e-08
2.31529e-07
-1.14058e-07
3.81144e-07
-1.95091e-07
5.22367e-07
-2.93271e-07
6.52291e-07
-4.06024e-07
7.68579e-07
-5.30806e-07
8.69438e-07
-6.65116e-07
9.53586e-07
-8.06505e-07
1.0202e-06
-9.52594e-07
1.06888e-06
-1.10108e-06
1.09955e-06
-1.24977e-06
1.11245e-06
-1.39656e-06
1.10806e-06
-1.53949e-06
1.08708e-06
-1.67671e-06
1.05036e-06
-1.80651e-06
9.98901e-07
-1.92733e-06
9.33792e-07
-2.03775e-06
8.56213e-07
-2.1365e-06
7.67411e-07
-2.22247e-06
6.68681e-07
-2.29468e-06
5.61366e-07
-2.35232e-06
4.46844e-07
-2.39474e-06
3.2653e-07
-2.42142e-06
2.01871e-07
-2.43203e-06
7.43503e-08
-2.42639e-06
-5.45186e-08
-2.40447e-06
-1.83187e-07
-2.36643e-06
-3.10074e-07
-2.31261e-06
-4.33571e-07
-2.24352e-06
-5.52045e-07
-2.15986e-06
-6.63852e-07
-2.06251e-06
-7.67344e-07
-1.95256e-06
-8.60889e-07
-1.8313e-06
-9.42893e-07
-1.70018e-06
-1.01182e-06
-1.56087e-06
-1.06624e-06
-1.41523e-06
-1.10483e-06
-1.26527e-06
-1.12646e-06
-1.11315e-06
-1.13019e-06
-9.61201e-07
-1.11534e-06
-8.1183e-07
-1.08154e-06
-6.67544e-07
-1.02878e-06
-5.30896e-07
-9.57444e-07
-4.04463e-07
-8.68356e-07
-2.90807e-07
-7.62841e-07
-1.92451e-07
-6.42741e-07
-1.11856e-07
-5.10453e-07
-5.14019e-08
-3.68917e-07
-1.33812e-08
-2.21612e-07
-7.27252e-08
-1.50526e-08
9.22578e-08
-5.72454e-08
2.73722e-07
-1.23623e-07
4.47521e-07
-2.11249e-07
6.09993e-07
-3.1722e-07
7.58262e-07
-4.38672e-07
8.90032e-07
-5.72796e-07
1.00356e-06
-7.1685e-07
1.09764e-06
-8.68172e-07
1.17153e-06
-1.0242e-06
1.2249e-06
-1.18247e-06
1.25782e-06
-1.34066e-06
1.27063e-06
-1.49656e-06
1.26396e-06
-1.64812e-06
1.23864e-06
-1.79343e-06
1.19567e-06
-1.93072e-06
1.1362e-06
-2.0584e-06
1.06147e-06
-2.17502e-06
9.72831e-07
-2.27928e-06
8.71674e-07
-2.37006e-06
7.59454e-07
-2.44636e-06
6.37667e-07
-2.50736e-06
5.07848e-07
-2.5524e-06
3.71565e-07
-2.58095e-06
2.30421e-07
-2.59265e-06
8.60556e-08
-2.58732e-06
-5.9856e-08
-2.5649e-06
-2.05601e-07
-2.52555e-06
-3.49429e-07
-2.46956e-06
-4.89555e-07
-2.39744e-06
-6.24164e-07
-2.30987e-06
-7.51422e-07
-2.20773e-06
-8.69486e-07
-2.0921e-06
-9.76521e-07
-1.96427e-06
-1.07073e-06
-1.82573e-06
-1.15036e-06
-1.67819e-06
-1.21378e-06
-1.52357e-06
-1.25946e-06
-1.36396e-06
-1.28607e-06
-1.20165e-06
-1.2925e-06
-1.03909e-06
-1.2779e-06
-8.78875e-07
-1.24176e-06
-7.23706e-07
-1.18395e-06
-5.7637e-07
-1.10478e-06
-4.397e-07
-1.00503e-06
-3.16543e-07
-8.85998e-07
-2.09723e-07
-7.49561e-07
-1.22015e-07
-5.98161e-07
-5.61129e-08
-4.3482e-07
-1.46144e-08
-2.63111e-07
-8.73396e-08
-1.62398e-08
1.08498e-07
-6.1727e-08
3.19209e-07
-1.33209e-07
5.19003e-07
-2.27443e-07
7.04227e-07
-3.4122e-07
8.72038e-07
-4.71383e-07
1.0202e-06
-6.14852e-07
1.14703e-06
-7.68639e-07
1.25143e-06
-9.29863e-07
1.33275e-06
-1.09577e-06
1.39081e-06
-1.26375e-06
1.4258e-06
-1.43134e-06
1.43822e-06
-1.59623e-06
1.42885e-06
-1.75628e-06
1.39869e-06
-1.90952e-06
1.34891e-06
-2.05414e-06
1.28082e-06
-2.18852e-06
1.19585e-06
-2.31118e-06
1.09549e-06
-2.42082e-06
9.81311e-07
-2.51629e-06
8.54925e-07
-2.5966e-06
7.17984e-07
-2.66093e-06
5.72179e-07
-2.7086e-06
4.1923e-07
-2.73907e-06
2.60893e-07
-2.75198e-06
9.89624e-08
-2.7471e-06
-6.47313e-08
-2.72439e-06
-2.28314e-07
-2.68395e-06
-3.89869e-07
-2.62606e-06
-5.47439e-07
-2.5512e-06
-6.99025e-07
-2.46002e-06
-8.42602e-07
-2.35338e-06
-9.76126e-07
-2.23235e-06
-1.09755e-06
-2.09821e-06
-1.20486e-06
-1.95248e-06
-1.29609e-06
-1.79689e-06
-1.36937e-06
-1.63341e-06
-1.42294e-06
-1.46422e-06
-1.45526e-06
-1.29172e-06
-1.465e-06
-1.1185e-06
-1.45111e-06
-9.47331e-07
-1.41293e-06
-7.81125e-07
-1.35016e-06
-6.22912e-07
-1.26299e-06
-4.75797e-07
-1.15214e-06
-3.42925e-07
-1.01887e-06
-2.27439e-07
-8.65047e-07
-1.32439e-07
-6.9316e-07
-6.09496e-08
-5.06309e-07
-1.58817e-08
-3.08179e-07
-1.03221e-07
-1.74406e-08
1.25938e-07
-6.62533e-08
3.68022e-07
-1.42882e-07
5.95632e-07
-2.4377e-07
8.05115e-07
-3.65395e-07
9.93664e-07
-5.04304e-07
1.1591e-06
-6.57135e-07
1.29986e-06
-8.20649e-07
1.41494e-06
-9.91742e-07
1.50384e-06
-1.16747e-06
1.56654e-06
-1.34506e-06
1.60339e-06
-1.52191e-06
1.61507e-06
-1.69563e-06
1.60256e-06
-1.86398e-06
1.56705e-06
-2.02496e-06
1.50988e-06
-2.17671e-06
1.43257e-06
-2.31757e-06
1.33672e-06
-2.44608e-06
1.224e-06
-2.56092e-06
1.09615e-06
-2.66095e-06
9.54951e-07
-2.74518e-06
8.02213e-07
-2.81278e-06
6.39778e-07
-2.86307e-06
4.69519e-07
-2.89551e-06
2.93338e-07
-2.90973e-06
1.13177e-07
-2.90547e-06
-6.89826e-08
-2.88268e-06
-2.51113e-07
-2.84141e-06
-4.31136e-07
-2.78192e-06
-6.06924e-07
-2.70465e-06
-7.763e-07
-2.61021e-06
-9.37046e-07
-2.49942e-06
-1.08691e-06
-2.37333e-06
-1.22364e-06
-2.2332e-06
-1.34499e-06
-2.08056e-06
-1.44874e-06
-1.91714e-06
-1.53278e-06
-1.74498e-06
-1.59511e-06
-1.56631e-06
-1.63393e-06
-1.38365e-06
-1.64766e-06
-1.19974e-06
-1.63503e-06
-1.01751e-06
-1.59515e-06
-8.40109e-07
-1.52756e-06
-6.70808e-07
-1.43229e-06
-5.13005e-07
-1.30994e-06
-3.7016e-07
-1.16172e-06
-2.45752e-07
-9.89455e-07
-1.43231e-07
-7.95682e-07
-6.59642e-08
-5.83576e-07
-1.71984e-08
-3.56945e-07
-1.2042e-07
-1.86639e-08
1.44602e-07
-7.08551e-08
4.20213e-07
-1.52701e-07
6.77478e-07
-2.60318e-07
9.12731e-07
-3.89861e-07
1.12321e-06
-5.37566e-07
1.30681e-06
-6.99786e-07
1.46208e-06
-8.73019e-07
1.58817e-06
-1.05393e-06
1.68476e-06
-1.23939e-06
1.752e-06
-1.42645e-06
1.79045e-06
-1.6124e-06
1.80102e-06
-1.79473e-06
1.7849e-06
-1.97116e-06
1.74347e-06
-2.1396e-06
1.67833e-06
-2.29821e-06
1.59117e-06
-2.4453e-06
1.48381e-06
-2.5794e-06
1.3581e-06
-2.69921e-06
1.21596e-06
-2.8036e-06
1.05934e-06
-2.8916e-06
8.90208e-07
-2.96237e-06
7.10556e-07
-3.01526e-06
5.22401e-07
-3.04971e-06
3.2779e-07
-3.06533e-06
1.28802e-07
-3.06188e-06
-7.24401e-08
-3.03923e-06
-2.73763e-07
-2.99743e-06
-4.72935e-07
-2.93668e-06
-6.67667e-07
-2.85738e-06
-8.55607e-07
-2.76008e-06
-1.03435e-06
-2.64556e-06
-1.20143e-06
-2.51482e-06
-1.35438e-06
-2.36911e-06
-1.4907e-06
-2.20991e-06
-1.60794e-06
-2.03898e-06
-1.7037e-06
-1.85837e-06
-1.77572e-06
-1.6704e-06
-1.8219e-06
-1.47767e-06
-1.84038e-06
-1.28306e-06
-1.82964e-06
-1.0897e-06
-1.78852e-06
-9.00933e-07
-1.71632e-06
-7.20322e-07
-1.61291e-06
-5.5156e-07
-1.47871e-06
-3.98445e-07
-1.31483e-06
-2.64813e-07
-1.12309e-06
-1.54486e-07
-9.06009e-07
-7.12067e-08
-6.66855e-07
-1.85791e-08
-4.09572e-07
-1.38999e-07
-1.99183e-08
1.6452e-07
-7.55607e-08
4.75856e-07
-1.62719e-07
7.64637e-07
-2.77166e-07
1.02718e-06
-4.14719e-07
1.26076e-06
-5.71288e-07
1.46338e-06
-7.42925e-07
1.63372e-06
-9.2586e-07
1.77111e-06
-1.11652e-06
1.87542e-06
-1.31158e-06
1.94706e-06
-1.50794e-06
1.98681e-06
-1.70275e-06
1.99583e-06
-1.89341e-06
1.97556e-06
-2.07759e-06
1.92765e-06
-2.25317e-06
1.85391e-06
-2.41827e-06
1.75628e-06
-2.57123e-06
1.63677e-06
-2.7106e-06
1.49746e-06
-2.83508e-06
1.34044e-06
-2.94357e-06
1.16783e-06
-3.03512e-06
9.81761e-07
-3.10893e-06
7.84369e-07
-3.16434e-06
5.7781e-07
-3.20081e-06
3.64261e-07
-3.21794e-06
1.45931e-07
-3.21545e-06
-7.49285e-08
-3.19321e-06
-2.96009e-07
-3.1512e-06
-5.1494e-07
-3.08959e-06
-7.29276e-07
-3.0087e-06
-9.365e-07
-2.90903e-06
-1.13402e-06
-2.79129e-06
-1.31917e-06
-2.65642e-06
-1.48925e-06
-2.50561e-06
-1.64151e-06
-2.34031e-06
-1.77324e-06
-2.16228e-06
-1.88174e-06
-1.97356e-06
-1.96443e-06
-1.77654e-06
-2.01892e-06
-1.57389e-06
-2.04303e-06
-1.36864e-06
-2.03489e-06
-1.16409e-06
-1.99307e-06
-9.63834e-07
-1.91658e-06
-7.71689e-07
-1.80505e-06
-5.9168e-07
-1.65872e-06
-4.27962e-07
-1.47855e-06
-2.8476e-07
-1.26629e-06
-1.66298e-07
-1.02447e-06
-7.67245e-08
-7.56429e-07
-2.00379e-08
-4.66259e-07
-1.59037e-07
-2.12114e-08
1.85732e-07
-8.03967e-08
5.35041e-07
-1.72989e-07
8.57229e-07
-2.94392e-07
1.14858e-06
-4.40064e-07
1.40643e-06
-6.05572e-07
1.62889e-06
-7.86652e-07
1.8148e-06
-9.79251e-07
1.9637e-06
-1.17956e-06
2.07573e-06
-1.38404e-06
2.15154e-06
-1.58944e-06
2.19221e-06
-1.79279e-06
2.19918e-06
-1.99142e-06
2.17419e-06
-2.18293e-06
2.11916e-06
-2.3652e-06
2.03617e-06
-2.53634e-06
1.92742e-06
-2.69472e-06
1.79515e-06
-2.8389e-06
1.64164e-06
-2.96765e-06
1.46919e-06
-3.0799e-06
1.28008e-06
-3.17473e-06
1.07659e-06
-3.25137e-06
8.61015e-07
-3.30919e-06
6.35628e-07
-3.34766e-06
4.02729e-07
-3.36637e-06
1.6464e-07
-3.36503e-06
-7.62699e-08
-3.34346e-06
-3.17577e-07
-3.30162e-06
-5.56782e-07
-3.23959e-06
-7.91301e-07
-3.15763e-06
-1.01846e-06
-3.05616e-06
-1.23549e-06
-2.93581e-06
-1.43952e-06
-2.79743e-06
-1.62763e-06
-2.64214e-06
-1.79681e-06
-2.47133e-06
-1.94404e-06
-2.28673e-06
-2.06634e-06
-2.09036e-06
-2.1608e-06
-1.88464e-06
-2.22464e-06
-1.67234e-06
-2.25533e-06
-1.45658e-06
-2.25065e-06
-1.24086e-06
-2.20879e-06
-1.029e-06
-2.12845e-06
-8.25113e-07
-2.00894e-06
-6.3356e-07
-1.85027e-06
-4.58883e-07
-1.65323e-06
-3.05727e-07
-1.41944e-06
-1.78755e-07
-1.15144e-06
-8.25637e-08
-8.5262e-07
-2.15883e-08
-5.27234e-07
-1.80625e-07
-2.25511e-08
2.08283e-07
-8.53895e-08
5.97879e-07
-1.83559e-07
9.55398e-07
-3.12068e-07
1.27709e-06
-4.65984e-07
1.56035e-06
-6.40511e-07
1.80341e-06
-8.31048e-07
2.00534e-06
-1.03325e-06
2.1659e-06
-1.24304e-06
2.28553e-06
-1.4567e-06
2.36519e-06
-1.67081e-06
2.40631e-06
-1.88229e-06
2.41066e-06
-2.0884e-06
2.3803e-06
-2.28671e-06
2.31747e-06
-2.47508e-06
2.22455e-06
-2.65168e-06
2.10402e-06
-2.81489e-06
1.95836e-06
-2.96333e-06
1.79009e-06
-3.09583e-06
1.60169e-06
-3.21137e-06
1.39562e-06
-3.3091e-06
1.17432e-06
-3.38829e-06
9.40209e-07
-3.44834e-06
6.95677e-07
-3.48874e-06
4.43129e-07
-3.50909e-06
1.84986e-07
-3.50907e-06
-7.6289e-08
-3.48848e-06
-3.38171e-07
-3.44721e-06
-5.98053e-07
-3.38528e-06
-8.53229e-07
-3.30285e-06
-1.10088e-06
-3.20026e-06
-1.33808e-06
-3.07803e-06
-1.56176e-06
-2.9369e-06
-1.76876e-06
-2.77789e-06
-1.95582e-06
-2.60231e-06
-2.11962e-06
-2.41181e-06
-2.25685e-06
-2.2084e-06
-2.36421e-06
-1.99449e-06
-2.43855e-06
-1.7729e-06
-2.47692e-06
-1.54688e-06
-2.47667e-06
-1.32009e-06
-2.43558e-06
-1.09657e-06
-2.35196e-06
-8.80762e-07
-2.22475e-06
-6.77375e-07
-2.05365e-06
-4.91367e-07
-1.83923e-06
-3.2784e-07
-1.58297e-06
-1.91944e-07
-1.28734e-06
-8.87696e-08
-9.55795e-07
-2.32437e-08
-5.9276e-07
-2.03869e-07
-2.39453e-08
2.32228e-07
-9.05665e-08
6.645e-07
-1.94481e-07
1.05931e-06
-3.30266e-07
1.41288e-06
-4.92567e-07
1.72265e-06
-6.76191e-07
1.98704e-06
-8.76179e-07
2.20533e-06
-1.08787e-06
2.37759e-06
-1.30694e-06
2.5046e-06
-1.52944e-06
2.5877e-06
-1.75182e-06
2.62869e-06
-1.97089e-06
2.62973e-06
-2.18386e-06
2.59326e-06
-2.38828e-06
2.52189e-06
-2.58204e-06
2.41832e-06
-2.76334e-06
2.28532e-06
-2.93064e-06
2.12566e-06
-3.08263e-06
1.94208e-06
-3.21822e-06
1.73727e-06
-3.33647e-06
1.51387e-06
-3.43661e-06
1.27446e-06
-3.51798e-06
1.02157e-06
-3.58e-06
7.57702e-07
-3.62221e-06
4.85341e-07
-3.64422e-06
2.06989e-07
-3.64569e-06
-7.48184e-08
-3.62638e-06
-3.57479e-07
-3.58613e-06
-6.38302e-07
-3.52488e-06
-9.1448e-07
-3.44269e-06
-1.18307e-06
-3.33977e-06
-1.441e-06
-3.21652e-06
-1.68501e-06
-3.07355e-06
-1.91172e-06
-2.91175e-06
-2.11761e-06
-2.73232e-06
-2.29906e-06
-2.53679e-06
-2.45237e-06
-2.32712e-06
-2.57388e-06
-2.10569e-06
-2.65998e-06
-1.87535e-06
-2.70726e-06
-1.63943e-06
-2.71259e-06
-1.40176e-06
-2.67325e-06
-1.16663e-06
-2.58709e-06
-9.38768e-07
-2.45261e-06
-7.23277e-07
-2.26915e-06
-5.2556e-07
-2.03695e-06
-3.51221e-07
-1.75731e-06
-2.05948e-07
-1.43261e-06
-9.53873e-08
-1.06636e-06
-2.50176e-08
-6.6313e-07
-2.28886e-07
-2.54031e-08
2.57631e-07
-9.59579e-08
7.35055e-07
-2.05812e-07
1.16917e-06
-3.49066e-07
1.55613e-06
-5.19903e-07
1.89349e-06
-7.12696e-07
2.17983e-06
-9.22101e-07
2.41473e-06
-1.14312e-06
2.59861e-06
-1.37117e-06
2.73265e-06
-1.60208e-06
2.81861e-06
-1.83216e-06
2.85876e-06
-2.05813e-06
2.85571e-06
-2.27717e-06
2.8123e-06
-2.48684e-06
2.73156e-06
-2.68508e-06
2.61656e-06
-2.87016e-06
2.47039e-06
-3.04062e-06
2.29613e-06
-3.19528e-06
2.09674e-06
-3.33314e-06
1.87513e-06
-3.45337e-06
1.63411e-06
-3.5553e-06
1.37639e-06
-3.63833e-06
1.10461e-06
-3.70199e-06
8.21355e-07
-3.74582e-06
5.29178e-07
-3.76946e-06
2.30629e-07
-3.77258e-06
-7.17058e-08
-3.75488e-06
-3.75177e-07
-3.71614e-06
-6.77036e-07
-3.65622e-06
-9.74401e-07
-3.57506e-06
-1.26424e-06
-3.47273e-06
-1.54332e-06
-3.34948e-06
-1.80826e-06
-3.20577e-06
-2.05544e-06
-3.0423e-06
-2.28108e-06
-2.86013e-06
-2.48123e-06
-2.66065e-06
-2.65185e-06
-2.44571e-06
-2.78882e-06
-2.21764e-06
-2.88806e-06
-1.97927e-06
-2.94563e-06
-1.734e-06
-2.95785e-06
-1.4858e-06
-2.92145e-06
-1.2392e-06
-2.8337e-06
-9.99222e-07
-2.69259e-06
-7.71394e-07
-2.49697e-06
-5.61598e-07
-2.24675e-06
-3.75989e-07
-1.94292e-06
-2.20854e-07
-1.58775e-06
-1.02463e-07
-1.18475e-06
-2.69243e-08
-7.38669e-07
-2.55811e-07
-2.69349e-08
2.84566e-07
-1.01598e-07
8.09719e-07
-2.17616e-07
1.28518e-06
-3.68557e-07
1.70707e-06
-5.48091e-07
2.07302e-06
-7.50116e-07
2.38186e-06
-9.68865e-07
2.63348e-06
-1.19899e-06
2.82874e-06
-1.43561e-06
2.96927e-06
-1.67437e-06
3.05738e-06
-1.91143e-06
3.09582e-06
-2.14344e-06
3.08772e-06
-2.36757e-06
3.03643e-06
-2.58142e-06
2.94541e-06
-2.78301e-06
2.81815e-06
-2.97072e-06
2.6581e-06
-3.14322e-06
2.46862e-06
-3.29945e-06
2.25297e-06
-3.43857e-06
2.01424e-06
-3.55987e-06
1.75541e-06
-3.66281e-06
1.47932e-06
-3.7469e-06
1.1887e-06
-3.81172e-06
8.86182e-07
-3.85691e-06
5.74369e-07
-3.88212e-06
2.55834e-07
-3.887e-06
-6.68219e-08
-3.87125e-06
-3.90932e-07
-3.83456e-06
-7.13722e-07
-3.77669e-06
-1.03227e-06
-3.69746e-06
-1.34347e-06
-3.59678e-06
-1.644e-06
-3.47472e-06
-1.93032e-06
-3.33154e-06
-2.19862e-06
-3.16775e-06
-2.44487e-06
-2.98419e-06
-2.66479e-06
-2.78209e-06
-2.85395e-06
-2.56313e-06
-3.00777e-06
-2.32953e-06
-3.12165e-06
-2.08409e-06
-3.19107e-06
-1.83022e-06
-3.21172e-06
-1.57202e-06
-3.17966e-06
-1.31421e-06
-3.09151e-06
-1.06217e-06
-2.94463e-06
-8.21833e-07
-2.73731e-06
-5.99609e-07
-2.46897e-06
-4.02262e-07
-2.14027e-06
-2.36748e-07
-1.75326e-06
-1.10047e-07
-1.31145e-06
-2.89791e-08
-8.19737e-07
-2.8479e-07
-2.85534e-08
3.1312e-07
-1.0753e-07
8.88696e-07
-2.2997e-07
1.40762e-06
-3.88844e-07
1.86594e-06
-5.77247e-07
2.26142e-06
-7.88549e-07
2.59316e-06
-1.01652e-06
2.86145e-06
-1.25543e-06
3.06765e-06
-1.50012e-06
3.21396e-06
-1.746e-06
3.30326e-06
-1.98912e-06
3.33894e-06
-2.2261e-06
3.3247e-06
-2.45411e-06
3.26444e-06
-2.67083e-06
3.16214e-06