/*--------------------------------*- C++ -*----------------------------------*\
| =========                 |                                                 |
| \\      /  F ield         | OpenFOAM: The Open Source CFD Toolbox           |
|  \\    /   O peration     | Version:  v2012                                 |
|   \\  /    A nd           | Website:  www.openfoam.com                      |
|    \\/     M anipulation  |                                                 |
\*---------------------------------------------------------------------------*/
FoamFile
{
    version     2.0;
    format      ascii;
    class       volVectorField;
    location    "0.1";
    object      U;
}
// * * * * * * * * * * * * * * * * * * * * * * * * * * * * * * * * * * * * * //

dimensions      [0 1 -1 0 0 0 0];


internalField   nonuniform List<vector> 
2500
(
(3.23748e-05 -3.2292e-05 0)
(9.76236e-05 -4.0089e-05 0)
(0.000135386 -2.05912e-05 0)
(0.000104346 7.89841e-06 0)
(-9.56548e-06 3.74163e-05 0)
(-0.000204814 6.46984e-05 0)
(-0.00047414 8.84485e-05 0)
(-0.000807837 0.000108259 0)
(-0.00119509 0.000124106 0)
(-0.00162478 0.00013613 0)
(-0.00208586 0.000144532 0)
(-0.00256769 0.000149541 0)
(-0.00306008 0.000151395 0)
(-0.00355347 0.000150331 0)
(-0.00403889 0.000146587 0)
(-0.00450805 0.000140393 0)
(-0.00495336 0.000131976 0)
(-0.00536788 0.000121557 0)
(-0.0057454 0.000109354 0)
(-0.00608037 9.55814e-05 0)
(-0.00636798 8.04521e-05 0)
(-0.00660411 6.41819e-05 0)
(-0.00678536 4.69869e-05 0)
(-0.00690907 2.90873e-05 0)
(-0.00697333 1.07111e-05 0)
(-0.006977 -7.90866e-06 0)
(-0.00691973 -2.65304e-05 0)
(-0.00680201 -4.49015e-05 0)
(-0.00662515 -6.27621e-05 0)
(-0.00639134 -7.9846e-05 0)
(-0.00610365 -9.58774e-05 0)
(-0.00576606 -0.000110573 0)
(-0.00538343 -0.000123648 0)
(-0.00496156 -0.000134818 0)
(-0.0045071 -0.000143799 0)
(-0.0040276 -0.000150315 0)
(-0.0035314 -0.000154098 0)
(-0.00302762 -0.000154898 0)
(-0.00252607 -0.00015248 0)
(-0.00203712 -0.000146631 0)
(-0.00157163 -0.000137167 0)
(-0.00114075 -0.000123942 0)
(-0.000755716 -0.000106862 0)
(-0.000427559 -8.59225e-05 0)
(-0.000166586 -6.13004e-05 0)
(1.84135e-05 -3.35747e-05 0)
(0.000121529 -4.20843e-06 0)
(0.000142898 2.33871e-05 0)
(9.86186e-05 4.12391e-05 0)
(3.17771e-05 3.17094e-05 0)
(4.05766e-05 -9.77404e-05 0)
(9.25464e-05 -9.14156e-05 0)
(4.41826e-05 1.48684e-05 0)
(-0.000168079 0.000160488 0)
(-0.000570792 0.000315096 0)
(-0.00116525 0.000462895 0)
(-0.0019392 0.000595667 0)
(-0.00287264 0.000709406 0)
(-0.00394118 0.000802395 0)
(-0.00511824 0.000874184 0)
(-0.00637648 0.000925045 0)
(-0.00768871 0.000955684 0)
(-0.00902847 0.000967068 0)
(-0.0103704 0.000960325 0)
(-0.0116906 0.000936682 0)
(-0.0129668 0.000897428 0)
(-0.0141781 0.00084389 0)
(-0.0153059 0.000777416 0)
(-0.0163329 0.000699366 0)
(-0.0172441 0.000611119 0)
(-0.0180262 0.000514064 0)
(-0.0186679 0.000409616 0)
(-0.0191599 0.00029921 0)
(-0.019495 0.000184314 0)
(-0.019668 6.64332e-05 0)
(-0.019676 -5.28842e-05 0)
(-0.019518 -0.000172046 0)
(-0.0191957 -0.000289414 0)
(-0.0187128 -0.000403303 0)
(-0.0180753 -0.000511993 0)
(-0.017292 -0.000613734 0)
(-0.0163737 -0.000706755 0)
(-0.0153338 -0.000789286 0)
(-0.0141881 -0.000859579 0)
(-0.0129548 -0.000915929 0)
(-0.0116541 -0.000956703 0)
(-0.0103085 -0.000980375 0)
(-0.00894222 -0.00098556 0)
(-0.00758117 -0.000971055 0)
(-0.00625251 -0.000935891 0)
(-0.00498425 -0.000879403 0)
(-0.00380466 -0.000801331 0)
(-0.00274151 -0.00070197 0)
(-0.00182105 -0.00058245 0)
(-0.00106652 -0.000445235 0)
(-0.000495838 -0.000295098 0)
(-0.000118384 -0.000140946 0)
(7.05332e-05 9.26141e-07 0)
(0.000101395 0.000100298 0)
(4.16253e-05 9.86298e-05 0)
(2.21528e-05 -0.000137203 0)
(-1.03022e-05 -4.43154e-05 0)
(-0.000232224 0.000237889 0)
(-0.000699103 0.000603205 0)
(-0.00143636 0.000991994 0)
(-0.00244545 0.00136839 0)
(-0.00371073 0.00171115 0)
(-0.00520543 0.00200832 0)
(-0.00689586 0.00225365 0)
(-0.00874436 0.00244443 0)
(-0.0107114 0.00258021 0)
(-0.0127569 0.00266198 0)
(-0.0148416 0.00269169 0)
(-0.0169272 0.00267194 0)
(-0.0189774 0.00260573 0)
(-0.0209582 0.00249638 0)
(-0.0228377 0.00234737 0)
(-0.024587 0.00216234 0)
(-0.0261796 0.00194502 0)
(-0.0275922 0.00169923 0)
(-0.0288042 0.00142885 0)
(-0.0297981 0.00113784 0)
(-0.0305596 0.000830248 0)
(-0.0310775 0.000510223 0)
(-0.031344 0.000182009 0)
(-0.0313544 -0.000150036 0)
(-0.0311078 -0.000481438 0)
(-0.0306064 -0.000807609 0)
(-0.0298564 -0.00112386 0)
(-0.0288673 -0.00142539 0)
(-0.0276525 -0.00170739 0)
(-0.026229 -0.00196498 0)
(-0.0246177 -0.00219332 0)
(-0.0228427 -0.00238769 0)
(-0.0209319 -0.0025435 0)
(-0.0189164 -0.00265641 0)
(-0.0168304 -0.00272244 0)
(-0.0147106 -0.00273807 0)
(-0.0125961 -0.00270035 0)
(-0.0105276 -0.00260713 0)
(-0.00854664 -0.00245722 0)
(-0.00669462 -0.00225074 0)
(-0.00501174 -0.00198957 0)
(-0.00353524 -0.00167805 0)
(-0.00229723 -0.00132422 0)
(-0.00132176 -0.000941777 0)
(-0.00062074 -0.000553481 0)
(-0.000188285 -0.000196144 0)
(6.38885e-06 7.08784e-05 0)
(2.49634e-05 0.000144505 0)
(-4.9218e-06 -0.000110336 0)
(-0.000152402 0.000163918 0)
(-0.000593813 0.000703567 0)
(-0.00135844 0.0013654 0)
(-0.0024607 0.00206244 0)
(-0.00389797 0.00273807 0)
(-0.0056498 0.00335617 0)
(-0.00768322 0.00389476 0)
(-0.00995709 0.00434126 0)
(-0.0124251 0.00468939 0)
(-0.0150382 0.00493707 0)
(-0.0177462 0.00508515 0)
(-0.0204994 0.00513646 0)
(-0.0232491 0.00509526 0)
(-0.0259489 0.00496673 0)
(-0.0285548 0.00475678 0)
(-0.0310258 0.00447178 0)
(-0.0333243 0.00411845 0)
(-0.035416 0.00370377 0)
(-0.0372704 0.00323495 0)
(-0.0388608 0.00271937 0)
(-0.0401645 0.00216458 0)
(-0.0411627 0.00157833 0)
(-0.0418411 0.000968532 0)
(-0.0421892 0.000343325 0)
(-0.0422015 -0.00028896 0)
(-0.0418764 -0.000919783 0)
(-0.0412174 -0.0015404 0)
(-0.0402322 -0.00214189 0)
(-0.0389337 -0.0027152 0)
(-0.0373393 -0.00325119 0)
(-0.0354711 -0.00374072 0)
(-0.0333563 -0.00417472 0)
(-0.0310262 -0.00454438 0)
(-0.028517 -0.00484119 0)
(-0.0258687 -0.00505722 0)
(-0.0231252 -0.00518523 0)
(-0.0203337 -0.00521894 0)
(-0.017544 -0.0051533 0)
(-0.0148076 -0.00498485 0)
(-0.012177 -0.00471209 0)
(-0.00970419 -0.00433615 0)
(-0.00743896 -0.00386154 0)
(-0.00542725 -0.00329742 0)
(-0.00370846 -0.0026594 0)
(-0.00231246 -0.00197245 0)
(-0.00125538 -0.00127522 0)
(-0.000534635 -0.00062595 0)
(-0.000129068 -0.000111541 0)
(-7.17657e-07 0.000128095 0)
(-3.33431e-05 -2.50588e-06 0)
(-0.000306628 0.000562814 0)
(-0.000989077 0.00144317 0)
(-0.00207426 0.00247026 0)
(-0.00355913 0.0035352 0)
(-0.0054331 0.00456304 0)
(-0.0076688 0.00550338 0)
(-0.0102264 0.00632384 0)
(-0.0130577 0.00700477 0)
(-0.0161089 0.00753551 0)
(-0.0193231 0.00791179 0)
(-0.0226416 0.00813388 0)
(-0.0260063 0.00820534 0)
(-0.0293598 0.0081321 0)
(-0.0326474 0.00792177 0)
(-0.0358169 0.00758321 0)
(-0.0388195 0.00712616 0)
(-0.0416104 0.00656106 0)
(-0.0441487 0.00589881 0)
(-0.0463978 0.00515075 0)
(-0.0483259 0.00432857 0)
(-0.0499058 0.00344426 0)
(-0.0511151 0.00251013 0)
(-0.0519364 0.0015388 0)
(-0.0523576 0.00054321 0)
(-0.0523718 -0.000463373 0)
(-0.0519774 -0.00146737 0)
(-0.0511785 -0.00245491 0)
(-0.0499847 -0.00341186 0)
(-0.0484111 -0.00432391 0)
(-0.0464789 -0.00517664 0)
(-0.0442144 -0.0059557 0)
(-0.04165 -0.00664688 0)
(-0.0388233 -0.00723642 0)
(-0.035777 -0.00771114 0)
(-0.0325589 -0.00805879 0)
(-0.0292209 -0.00826832 0)
(-0.0258188 -0.00833031 0)
(-0.0224114 -0.00823735 0)
(-0.0190591 -0.00798466 0)
(-0.0158234 -0.00757068 0)
(-0.012765 -0.00699803 0)
(-0.00994198 -0.00627462 0)
(-0.0074079 -0.00541531 0)
(-0.00520917 -0.00444425 0)
(-0.00338231 -0.00339821 0)
(-0.00194996 -0.00233141 0)
(-0.000916775 -0.00132142 0)
(-0.000277662 -0.000477787 0)
(-2.79996e-05 3.39635e-05 0)
(-6.04546e-05 0.000187108 0)
(-0.000460414 0.00116091 0)
(-0.0013904 0.0024703 0)
(-0.002805 0.00393213 0)
(-0.00468008 0.00542145 0)
(-0.00699417 0.00684841 0)
(-0.0097109 0.00815007 0)
(-0.0127824 0.00928434 0)
(-0.0161531 0.0102246 0)
(-0.0197621 0.0109555 0)
(-0.0235452 0.0114705 0)
(-0.0274366 0.011769 0)
(-0.0313707 0.0118553 0)
(-0.0352832 0.011737 0)
(-0.0391119 0.0114243 0)
(-0.042798 0.0109294 0)
(-0.0462863 0.0102658 0)
(-0.0495257 0.00944801 0)
(-0.0524698 0.00849158 0)
(-0.0550771 0.00741257 0)
(-0.0573114 0.00622763 0)
(-0.0591414 0.00495393 0)
(-0.060542 0.00360909 0)
(-0.0614932 0.00221119 0)
(-0.0619813 0.000778792 0)
(-0.0619985 -0.0006691 0)
(-0.0615429 -0.00211305 0)
(-0.0606192 -0.00353321 0)
(-0.0592384 -0.00490941 0)
(-0.0574177 -0.00622124 0)
(-0.0551811 -0.00744822 0)
(-0.0525587 -0.00856992 0)
(-0.049587 -0.00956629 0)
(-0.0463089 -0.0104179 0)
(-0.0427727 -0.0111061 0)
(-0.0390324 -0.0116139 0)
(-0.0351469 -0.0119259 0)
(-0.0311791 -0.0120292 0)
(-0.0271953 -0.0119138 0)
(-0.0232637 -0.0115736 0)
(-0.0194536 -0.011007 0)
(-0.0158333 -0.0102183 0)
(-0.0124686 -0.00921929 0)
(-0.00942027 -0.00803079 0)
(-0.0067424 -0.00668555 0)
(-0.00447939 -0.00523173 0)
(-0.00266255 -0.00373766 0)
(-0.00130672 -0.00229722 0)
(-0.000426529 -0.00103722 0)
(-5.41147e-05 -0.000139171 0)
(-8.54935e-05 0.000455284 0)
(-0.000608472 0.00195716 0)
(-0.00178409 0.00378716 0)
(-0.00352822 0.00575475 0)
(-0.00579421 0.0077241 0)
(-0.00854779 0.00959407 0)
(-0.0117418 0.0112915 0)
(-0.0153193 0.0127659 0)
(-0.0192166 0.0139844 0)
(-0.0233654 0.0149275 0)
(-0.0276947 0.0155861 0)
(-0.0321319 0.0159592 0)
(-0.036605 0.0160517 0)
(-0.0410433 0.015873 0)
(-0.0453786 0.0154363 0)
(-0.0495462 0.0147573 0)
(-0.0534853 0.0138535 0)
(-0.0571399 0.0127443 0)
(-0.0604589 0.01145 0)
(-0.0633965 0.00999209 0)
(-0.0659127 0.0083927 0)
(-0.0679735 0.00667475 0)
(-0.0695506 0.00486182 0)
(-0.0706224 0.00297812 0)
(-0.0711735 0.00104846 0)
(-0.0711953 -0.000901726 0)
(-0.0706859 -0.00284646 0)
(-0.0696503 -0.00475923 0)
(-0.0681004 -0.00661313 0)
(-0.0660552 -0.00838096 0)
(-0.063541 -0.0100354 0)
(-0.0605908 -0.0115495 0)
(-0.0572448 -0.0128964 0)
(-0.0535499 -0.0140505 0)
(-0.0495594 -0.0149873 0)
(-0.0453325 -0.0156843 0)
(-0.0409338 -0.0161214 0)
(-0.0364325 -0.0162817 0)
(-0.0319014 -0.0161526 0)
(-0.0274157 -0.0157262 0)
(-0.0230517 -0.015001 0)
(-0.0188849 -0.013983 0)
(-0.0149885 -0.0126876 0)
(-0.0114313 -0.0111414 0)
(-0.00827546 -0.00938528 0)
(-0.00557468 -0.00747774 0)
(-0.00337074 -0.0054992 0)
(-0.00169064 -0.00355669 0)
(-0.000570234 -0.0017896 0)
(-7.82387e-05 -0.000388411 0)
(-0.000108481 0.000797759 0)
(-0.000749259 0.00294622 0)
(-0.00216464 0.00538984 0)
(-0.00423371 0.00793557 0)
(-0.00688718 0.0104409 0)
(-0.0100769 0.0127966 0)
(-0.0137438 0.0149218 0)
(-0.0178206 0.0167593 0)
(-0.022235 0.0182711 0)
(-0.0269109 0.0194341 0)
(-0.0317703 0.0202375 0)
(-0.0367342 0.0206798 0)
(-0.0417243 0.0207671 0)
(-0.0466644 0.020511 0)
(-0.0514808 0.0199276 0)
(-0.0561038 0.0190364 0)
(-0.060468 0.0178598 0)
(-0.0645129 0.0164219 0)
(-0.0681835 0.0147484 0)
(-0.0714306 0.0128667 0)
(-0.074211 0.0108048 0)
(-0.0764879 0.00859194 0)
(-0.0782311 0.00625813 0)
(-0.0794171 0.00383422 0)
(-0.0800293 0.00135184 0)
(-0.0800584 -0.00115663 0)
(-0.079502 -0.00365809 0)
(-0.0783654 -0.00611881 0)
(-0.0766614 -0.00850456 0)
(-0.0744102 -0.0107808 0)
(-0.0716398 -0.0129128 0)
(-0.0683858 -0.0148663 0)
(-0.0646911 -0.0166074 0)
(-0.060606 -0.0181036 0)
(-0.0561879 -0.0193239 0)
(-0.0515004 -0.0202399 0)
(-0.0466132 -0.0208263 0)
(-0.041601 -0.0210621 0)
(-0.0365425 -0.0209311 0)
(-0.0315192 -0.0204238 0)
(-0.0266142 -0.0195383 0)
(-0.0219103 -0.0182819 0)
(-0.0174884 -0.0166731 0)
(-0.0134254 -0.0147441 0)
(-0.00979285 -0.0125426 0)
(-0.00665482 -0.0101362 0)
(-0.00406483 -0.00761537 0)
(-0.00206321 -0.00509733 0)
(-0.000707229 -0.00273042 0)
(-0.000100369 -0.000709749 0)
(-0.000129727 0.00121031 0)
(-0.000883027 0.00412127 0)
(-0.00253103 0.00727179 0)
(-0.00491847 0.0104691 0)
(-0.007954 0.0135671 0)
(-0.0115751 0.0164513 0)
(-0.0157102 0.0190354 0)
(-0.0202808 0.0212573 0)
(-0.025205 0.023075 0)
(-0.0303989 0.0244632 0)
(-0.035777 0.0254098 0)
(-0.0412539 0.0259137 0)
(-0.0467456 0.0259823 0)
(-0.0521702 0.0256299 0)
(-0.0574494 0.0248762 0)
(-0.0625088 0.0237448 0)
(-0.067279 0.0222629 0)
(-0.0716958 0.0204601 0)
(-0.0757009 0.018368 0)
(-0.0792421 0.0160198 0)
(-0.0822737 0.0134502 0)
(-0.0847566 0.0106951 0)
(-0.0866587 0.00779117 0)
(-0.087955 0.00477646 0)
(-0.088628 0.00168979 0)
(-0.0886674 -0.00142904 0)
(-0.0880706 -0.00453939 0)
(-0.086843 -0.00759986 0)
(-0.0849978 -0.0105684 0)
(-0.082556 -0.0134026 0)
(-0.079547 -0.0160601 0)
(-0.0760081 -0.0184985 0)
(-0.0719847 -0.0206764 0)
(-0.0675298 -0.022554 0)
(-0.062704 -0.0240933 0)
(-0.057575 -0.0252593 0)
(-0.0522168 -0.0260212 0)
(-0.0467091 -0.0263529 0)
(-0.0411361 -0.0262349 0)
(-0.0355855 -0.0256549 0)
(-0.030147 -0.0246103 0)
(-0.024911 -0.0231092 0)
(-0.0199663 -0.0211727 0)
(-0.015399 -0.0188371 0)
(-0.0112905 -0.0161564 0)
(-0.00771636 -0.0132055 0)
(-0.00474274 -0.010083 0)
(-0.00242386 -0.00691428 0)
(-0.000837898 -0.00385387 0)
(-0.000120826 -0.00109925 0)
(-0.000149603 0.00168928 0)
(-0.0010108 0.00547563 0)
(-0.00288457 0.00942586 0)
(-0.00558357 0.013349 0)
(-0.0089953 0.0170973 0)
(-0.0130429 0.0205534 0)
(-0.0176415 0.0236275 0)
(-0.0227011 0.0262543 0)
(-0.0281299 0.0283895 0)
(-0.0338352 0.0300063 0)
(-0.039724 0.0310928 0)
(-0.0457044 0.0316487 0)
(-0.0516865 0.0316836 0)
(-0.0575833 0.031215 0)
(-0.0633119 0.0302664 0)
(-0.0687939 0.0288663 0)
(-0.0739562 0.0270471 0)
(-0.0787315 0.024844 0)
(-0.0830586 0.022295 0)
(-0.0868827 0.0194396 0)
(-0.0901561 0.0163194 0)
(-0.0928379 0.0129771 0)
(-0.0948943 0.00945674 0)
(-0.0962993 0.00580367 0)
(-0.097034 0.00206427 0)
(-0.0970875 -0.00171393 0)
(-0.096457 -0.0054824 0)
(-0.0951475 -0.00919171 0)
(-0.0931723 -0.0127917 0)
(-0.0905533 -0.0162316 0)
(-0.0873204 -0.0194608 0)
(-0.0835124 -0.0224287 0)
(-0.0791763 -0.0250859 0)
(-0.0743675 -0.0273844 0)
(-0.0691493 -0.0292789 0)
(-0.0635927 -0.0307274 0)
(-0.0577758 -0.0316926 0)
(-0.0517827 -0.0321432 0)
(-0.0457032 -0.0320551 0)
(-0.0396309 -0.0314132 0)
(-0.0336625 -0.0302131 0)
(-0.0278959 -0.0284628 0)
(-0.0224287 -0.0261853 0)
(-0.0173565 -0.02342 0)
(-0.0127717 -0.0202259 0)
(-0.00876201 -0.0166838 0)
(-0.00540686 -0.0128988 0)
(-0.00277456 -0.00900254 0)
(-0.000963511 -0.00515452 0)
(-0.00014002 -0.00155363 0)
(-0.000168476 0.00223174 0)
(-0.00113391 0.00700351 0)
(-0.00322767 0.0118455 0)
(-0.00623227 0.016569 0)
(-0.0100149 0.0210262 0)
(-0.0144844 0.0250983 0)
(-0.0195427 0.0286937 0)
(-0.0250876 0.0317458 0)
(-0.031017 0.0342093 0)
(-0.037229 0.0360575 0)
(-0.0436229 0.0372792 0)
(-0.0500999 0.0378764 0)
(-0.0565645 0.0378614 0)
(-0.0629245 0.0372556 0)
(-0.0690928 0.036087 0)
(-0.0749871 0.0343894 0)
(-0.0805311 0.0322007 0)
(-0.0856548 0.0295626 0)
(-0.0902945 0.0265194 0)
(-0.0943935 0.0231176 0)
(-0.0979022 0.0194056 0)
(-0.100778 0.0154334 0)
(-0.102986 0.0112527 0)
(-0.104499 0.00691618 0)
(-0.105298 0.00247816 0)
(-0.10537 -0.00200592 0)
(-0.104713 -0.00647939 0)
(-0.10333 -0.0108845 0)
(-0.101236 -0.0151627 0)
(-0.0984512 -0.0192547 0)
(-0.0950075 -0.023101 0)
(-0.0909439 -0.0266427 0)
(-0.0863086 -0.0298215 0)
(-0.0811589 -0.0325812 0)
(-0.0755603 -0.0348683 0)
(-0.0695867 -0.0366331 0)
(-0.0633197 -0.0378315 0)
(-0.0568481 -0.0384259 0)
(-0.0502665 -0.038387 0)
(-0.0436749 -0.0376959 0)
(-0.0371769 -0.0363456 0)
(-0.0308786 -0.0343433 0)
(-0.0248868 -0.0317122 0)
(-0.0193074 -0.0284942 0)
(-0.0142443 -0.0247517 0)
(-0.00979809 -0.0205702 0)
(-0.00606204 -0.0160602 0)
(-0.00311859 -0.0113583 0)
(-0.00108571 -0.00662828 0)
(-0.000158371 -0.0020705 0)
(-0.00018667 0.00283556 0)
(-0.00125371 0.00870048 0)
(-0.00356318 0.0145255 0)
(-0.00686885 0.0201242 0)
(-0.0110183 0.0253493 0)
(-0.0159063 0.0300821 0)
(-0.0214213 0.0342308 0)
(-0.0274488 0.0377286 0)
(-0.0338758 0.040531 0)
(-0.0405912 0.0426124 0)
(-0.047486 0.0439639 0)
(-0.0544548 0.0445905 0)
(-0.0613958 0.0445084 0)
(-0.0682121 0.0437435 0)
(-0.0748124 0.0423292 0)
(-0.081111 0.0403049 0)
(-0.0870287 0.037715 0)
(-0.0924929 0.0346076 0)
(-0.097438 0.0310339 0)
(-0.101806 0.0270475 0)
(-0.105545 0.0227041 0)
(-0.108612 0.0180614 0)
(-0.11097 0.0131782 0)
(-0.112593 0.00811545 0)
(-0.113458 0.00293512 0)
(-0.113554 -0.00229919 0)
(-0.112876 -0.00752255 0)
(-0.111429 -0.0126687 0)
(-0.109226 -0.0176705 0)
(-0.106288 -0.0224598 0)
(-0.102645 -0.0269683 0)
(-0.0983386 -0.0311277 0)
(-0.0934164 -0.034871 0)
(-0.0879372 -0.038133 0)
(-0.0819684 -0.0408513 0)
(-0.0755864 -0.0429682 0)
(-0.0688761 -0.0444315 0)
(-0.0619304 -0.0451967 0)
(-0.054849 -0.0452286 0)
(-0.0477382 -0.044503 0)
(-0.040709 -0.0430096 0)
(-0.0338757 -0.0407532 0)
(-0.0273551 -0.0377567 0)
(-0.021264 -0.0340627 0)
(-0.0157186 -0.0297361 0)
(-0.0108329 -0.0248658 0)
(-0.00671442 -0.0195667 0)
(-0.00345983 -0.0139799 0)
(-0.00120625 -0.00827282 0)
(-0.00017627 -0.00264844 0)
(-0.000204472 0.00349936 0)
(-0.00137153 0.0105635 0)
(-0.00389403 0.0174623 0)
(-0.00749794 0.0240109 0)
(-0.0120117 0.0300635 0)
(-0.0173161 0.0355022 0)
(-0.0232859 0.0402363 0)
(-0.0297943 0.0442004 0)
(-0.036717 0.0473518 0)
(-0.0439332 0.0496679 0)
(-0.0513258 0.051143 0)
(-0.058782 0.0517863 0)
(-0.0661945 0.051619 0)
(-0.0734613 0.0506724 0)
(-0.080487 0.048986 0)
(-0.0871829 0.0466058 0)
(-0.093467 0.0435827 0)
(-0.0992649 0.0399721 0)
(-0.104509 0.0358324 0)
(-0.10914 0.0312245 0)
(-0.113106 0.0262117 0)
(-0.116361 0.0208592 0)
(-0.11887 0.0152337 0)
(-0.120603 0.00940377 0)
(-0.121538 0.00343948 0)
(-0.121664 -0.00258746 0)
(-0.120974 -0.00860378 0)
(-0.119472 -0.0145347 0)
(-0.11717 -0.0203042 0)
(-0.11409 -0.0258353 0)
(-0.110261 -0.0310503 0)
(-0.105723 -0.0358718 0)
(-0.100526 -0.040223 0)
(-0.0947288 -0.0440294 0)
(-0.0883995 -0.0472193 0)
(-0.0816171 -0.0497257 0)
(-0.0744693 -0.0514878 0)
(-0.067053 -0.0524532 0)
(-0.059473 -0.0525794 0)
(-0.0518418 -0.0518363 0)
(-0.044278 -0.0502084 0)
(-0.036905 -0.0476974 0)
(-0.0298495 -0.0443241 0)
(-0.0232403 -0.0401308 0)
(-0.0172063 -0.0351837 0)
(-0.0118758 -0.0295742 0)
(-0.00737067 -0.0234205 0)
(-0.00380233 -0.0168679 0)
(-0.00132687 -0.0100878 0)
(-0.000194075 -0.00328698 0)
(-0.000222129 0.00422242 0)
(-0.00148858 0.0125911 0)
(-0.00422306 0.0206539 0)
(-0.00812412 0.0282274 0)
(-0.0130013 0.0351673 0)
(-0.0187213 0.0413574 0)
(-0.0251454 0.0467091 0)
(-0.0321337 0.0511597 0)
(-0.0395508 0.05467 0)
(-0.0472658 0.0572213 0)
(-0.0551532 0.0588129 0)
(-0.0630931 0.0594593 0)
(-0.070972 0.0591878 0)
(-0.0786834 0.0580363 0)
(-0.086128 0.056051 0)
(-0.093214 0.0532851 0)
(-0.0998575 0.0497971 0)
(-0.105982 0.0456499 0)
(-0.111519 0.0409093 0)
(-0.116408 0.0356442 0)
(-0.120596 0.0299254 0)
(-0.124038 0.0238257 0)
(-0.126697 0.0174198 0)
(-0.128542 0.0107839 0)
(-0.129552 0.00399607 0)
(-0.129712 -0.0028639 0)
(-0.129018 -0.00971443 0)
(-0.127471 -0.0164722 0)
(-0.125082 -0.0230524 0)
(-0.121872 -0.0293689 0)
(-0.11787 -0.0353346 0)
(-0.113115 -0.0408624 0)
(-0.107656 -0.0458658 0)
(-0.101552 -0.0502599 0)
(-0.0948731 -0.0539632 0)
(-0.0876987 -0.0568986 0)
(-0.0801196 -0.0589959 0)
(-0.0722363 -0.0601933 0)
(-0.0641587 -0.0604399 0)
(-0.0560056 -0.0596983 0)
(-0.0479031 -0.0579468 0)
(-0.0399842 -0.055182 0)
(-0.0323864 -0.0514215 0)
(-0.0252507 -0.0467061 0)
(-0.0187196 -0.0411018 0)
(-0.0129361 -0.0347014 0)
(-0.00803758 -0.0276263 0)
(-0.00415013 -0.0200254 0)
(-0.00144924 -0.0120749 0)
(-0.000212111 -0.00398656 0)
(-0.000239848 0.00500464 0)
(-0.00160593 0.0147828 0)
(-0.00455288 0.0241 0)
(-0.00875175 0.0327736 0)
(-0.0139931 0.0406606 0)
(-0.0201295 0.0476475 0)
(-0.0270082 0.0536488 0)
(-0.0344764 0.0586058 0)
(-0.0423869 0.0624841 0)
(-0.0505988 0.0652704 0)
(-0.0589777 0.0669703 0)
(-0.0673967 0.0676051 0)
(-0.0757364 0.0672094 0)
(-0.0838855 0.0658286 0)
(-0.0917413 0.0635168 0)
(-0.0992094 0.0603354 0)
(-0.106204 0.0563508 0)
(-0.112647 0.0516339 0)
(-0.11847 0.0462587 0)
(-0.123611 0.0403018 0)
(-0.128017 0.033842 0)
(-0.131642 0.0269597 0)
(-0.13445 0.0197373 0)
(-0.136409 0.0122588 0)
(-0.137497 0.00461006 0)
(-0.137699 -0.00312116 0)
(-0.137009 -0.0108451 0)
(-0.135428 -0.0184702 0)
(-0.132965 -0.0259026 0)
(-0.12964 -0.0330472 0)
(-0.125479 -0.0398073 0)
(-0.120522 -0.046086 0)
(-0.114815 -0.0517862 0)
(-0.108418 -0.0568127 0)
(-0.101401 -0.061073 0)
(-0.0938454 -0.0644793 0)
(-0.0858427 -0.0669504 0)
(-0.0774972 -0.0684144 0)
(-0.0689238 -0.0688104 0)
(-0.0602473 -0.0680922 0)
(-0.0516021 -0.0662301 0)
(-0.0431306 -0.0632144 0)
(-0.0349818 -0.0590578 0)
(-0.0273094 -0.0537979 0)
(-0.0202705 -0.0474996 0)
(-0.0140235 -0.0402563 0)
(-0.00872182 -0.0321915 0)
(-0.00450713 -0.0234582 0)
(-0.00157494 -0.0142377 0)
(-0.000230673 -0.00474848 0)
(-0.000257811 0.00584645 0)
(-0.00172458 0.0171398 0)
(-0.00488587 0.0278021 0)
(-0.00938484 0.0376509 0)
(-0.0149927 0.046545 0)
(-0.0215474 0.0543738 0)
(-0.0288822 0.0610561 0)
(-0.0368305 0.0665384 0)
(-0.0452335 0.0707925 0)
(-0.0539398 0.0738123 0)
(-0.0628063 0.075611 0)
(-0.0716986 0.0762181 0)
(-0.0804918 0.0756768 0)
(-0.0890701 0.0740414 0)
(-0.0973275 0.071375 0)
(-0.105167 0.0677477 0)
(-0.112502 0.0632349 0)
(-0.119254 0.0579159 0)
(-0.125353 0.0518731 0)
(-0.130738 0.0451913 0)
(-0.135356 0.0379572 0)
(-0.139161 0.0302589 0)
(-0.142116 0.0221863 0)
(-0.14419 0.0138312 0)
(-0.14536 0.00528679 0)
(-0.145611 -0.00335139 0)
(-0.144935 -0.0119857 0)
(-0.143331 -0.0205163 0)
(-0.140808 -0.0288408 0)
(-0.137383 -0.036855 0)
(-0.133081 -0.0444526 0)
(-0.127938 -0.0515264 0)
(-0.122002 -0.057969 0)
(-0.115329 -0.0636736 0)
(-0.107989 -0.0685364 0)
(-0.100065 -0.0724576 0)
(-0.0916485 -0.0753443 0)
(-0.0828479 -0.0771124 0)
(-0.0737822 -0.0776901 0)
(-0.0645824 -0.0770203 0)
(-0.0553909 -0.0750638 0)
(-0.04636 -0.0718026 0)
(-0.0376506 -0.067243 0)
(-0.0294301 -0.0614177 0)
(-0.0218706 -0.0543891 0)
(-0.0151471 -0.0462502 0)
(-0.00942979 -0.0371263 0)
(-0.00487708 -0.0271745 0)
(-0.00170547 -0.0165818 0)
(-0.000250033 -0.00557483 0)
(-0.00027618 0.00674877 0)
(-0.00184538 0.0196642 0)
(-0.00522423 0.031763 0)
(-0.0100271 0.0428625 0)
(-0.0160052 0.0528233 0)
(-0.0229815 0.0615384 0)
(-0.0307743 0.0689321 0)
(-0.0392034 0.0749572 0)
(-0.0480976 0.0795935 0)
(-0.0572948 0.0828433 0)
(-0.0666432 0.0847292 0)
(-0.0760012 0.0852907 0)
(-0.0852381 0.0845809 0)
(-0.0942342 0.0826644 0)
(-0.102881 0.0796142 0)
(-0.111079 0.0755104 0)
(-0.118741 0.0704377 0)
(-0.125788 0.0644848 0)
(-0.132151 0.0577427 0)
(-0.137769 0.0503046 0)
(-0.14259 0.0422649 0)
(-0.146569 0.0337197 0)
(-0.149668 0.0247662 0)
(-0.151857 0.0155033 0)
(-0.153113 0.00603154 0)
(-0.153419 -0.00354627 0)
(-0.152767 -0.013125 0)
(-0.151154 -0.0225968 0)
(-0.148587 -0.0318511 0)
(-0.14508 -0.0407746 0)
(-0.140656 -0.0492517 0)
(-0.13535 -0.0571648 0)
(-0.129204 -0.0643954 0)
(-0.122276 -0.0708251 0)
(-0.114633 -0.0763376 0)
(-0.106356 -0.0808204 0)
(-0.0975405 -0.0841673 0)
(-0.0882952 -0.0862809 0)
(-0.0787436 -0.0870763 0)
(-0.0690226 -0.0864838 0)
(-0.0592827 -0.0844528 0)
(-0.0496863 -0.080955 0)
(-0.0404067 -0.075988 0)
(-0.0316254 -0.0695784 0)
(-0.0235308 -0.0617842 0)
(-0.0163154 -0.0526972 0)
(-0.0101676 -0.0424438 0)
(-0.00526352 -0.031185 0)
(-0.00184224 -0.0191145 0)
(-0.000270443 -0.00646846 0)
(-0.000295097 0.00771295 0)
(-0.00196916 0.0223591 0)
(-0.00556996 0.0359868 0)
(-0.0106819 0.0484127 0)
(-0.0170352 0.0594994 0)
(-0.0244372 0.0691445 0)
(-0.0326906 0.0772782 0)
(-0.0416009 0.0838618 0)
(-0.050984 0.0888841 0)
(-0.0606674 0.0923581 0)
(-0.0704898 0.0943174 0)
(-0.0803029 0.094813 0)
(-0.0899706 0.0939099 0)
(-0.0993695 0.0916839 0)
(-0.108388 0.0882198 0)
(-0.116927 0.0836081 0)
(-0.124899 0.0779441 0)
(-0.132224 0.0713261 0)
(-0.138835 0.0638543 0)
(-0.144672 0.0556303 0)
(-0.149684 0.0467566 0)
(-0.153827 0.0373366 0)
(-0.157065 0.0274746 0)
(-0.159368 0.0172764 0)
(-0.160712 0.0068493 0)
(-0.161081 -0.00369713 0)
(-0.160463 -0.0142507 0)
(-0.158856 -0.0246962 0)
(-0.156263 -0.0349151 0)
(-0.152695 -0.0447856 0)
(-0.148173 -0.0541826 0)
(-0.142728 -0.0629782 0)
(-0.136399 -0.0710425 0)
(-0.129241 -0.0782452 0)
(-0.121318 -0.0844566 0)
(-0.112711 -0.0895502 0)
(-0.103515 -0.0934053 0)
(-0.0938398 -0.0959096 0)
(-0.0838125 -0.0969631 0)
(-0.0735757 -0.0964815 0)
(-0.0632876 -0.0944004 0)
(-0.053121 -0.090679 0)
(-0.0432618 -0.0853042 0)
(-0.0339068 -0.0782941 0)
(-0.0252613 -0.0697009 0)
(-0.0175367 -0.0596136 0)
(-0.0109411 -0.0481592 0)
(-0.00566985 -0.0355026 0)
(-0.00198659 -0.0218448 0)
(-0.000292146 -0.00743293 0)
(-0.0003147 0.00874072 0)
(-0.00209667 0.0252286 0)
(-0.00592497 0.040479 0)
(-0.0113525 0.0543073 0)
(-0.0180872 0.0665786 0)
(-0.0259197 0.0771955 0)
(-0.0346363 0.0860959 0)
(-0.0440276 0.0932508 0)
(-0.0538963 0.0986601 0)
(-0.0640585 0.102349 0)
(-0.0743444 0.104365 0)
(-0.0845984 0.104772 0)
(-0.0946796 0.103648 0)
(-0.104461 0.101082 0)
(-0.113831 0.0971722 0)
(-0.122688 0.0920208 0)
(-0.130945 0.0857342 0)
(-0.138526 0.0784209 0)
(-0.145363 0.0701907 0)
(-0.151401 0.0611537 0)
(-0.156588 0.0514203 0)
(-0.160884 0.0411011 0)
(-0.164252 0.0303071 0)
(-0.166665 0.0191504 0)
(-0.168099 0.00774441 0)
(-0.168536 -0.00379509 0)
(-0.167965 -0.0153496 0)
(-0.166379 -0.0267972 0)
(-0.163781 -0.038012 0)
(-0.160177 -0.048864 0)
(-0.155584 -0.0592189 0)
(-0.15003 -0.0689388 0)
(-0.143549 -0.0778823 0)
(-0.136192 -0.0859063 0)
(-0.12802 -0.0928673 0)
(-0.119111 -0.0986238 0)
(-0.109559 -0.103039 0)
(-0.099475 -0.105983 0)
(-0.0889877 -0.107341 0)
(-0.0782448 -0.107009 0)
(-0.0674122 -0.104908 0)
(-0.0566731 -0.100981 0)
(-0.0462263 -0.0952027 0)
(-0.0362845 -0.0875795 0)
(-0.0270714 -0.0781563 0)
(-0.0188188 -0.0670176 0)
(-0.0117559 -0.0542903 0)
(-0.00609937 -0.0401426 0)
(-0.00213983 -0.0247834 0)
(-0.000315378 -0.00847248 0)
(-0.000335121 0.00983423 0)
(-0.00222867 0.0282778 0)
(-0.00629115 0.0452462 0)
(-0.0120419 0.0605532 0)
(-0.0191653 0.0740668 0)
(-0.0274336 0.0856955 0)
(-0.0366161 0.0953864 0)
(-0.0464872 0.103122 0)
(-0.056836 0.108915 0)
(-0.0674671 0.112806 0)
(-0.0782018 0.114857 0)
(-0.0888778 0.115148 0)
(-0.0993498 0.113773 0)
(-0.109489 0.110835 0)
(-0.119181 0.106446 0)
(-0.128327 0.100723 0)
(-0.13684 0.0937821 0)
(-0.144648 0.0857444 0)
(-0.151685 0.076729 0)
(-0.157897 0.0668548 0)
(-0.163239 0.0562396 0)
(-0.16767 0.0450011 0)
(-0.171158 0.0332564 0)
(-0.173675 0.0211232 0)
(-0.175198 0.00872027 0)
(-0.175709 -0.00383128 0)
(-0.175196 -0.0164075 0)
(-0.17365 -0.0288804 0)
(-0.171069 -0.0411176 0)
(-0.167457 -0.0529817 0)
(-0.162826 -0.0643296 0)
(-0.157198 -0.0750134 0)
(-0.150603 -0.0848803 0)
(-0.143085 -0.0937743 0)
(-0.134702 -0.101537 0)
(-0.125527 -0.108011 0)
(-0.115652 -0.113042 0)
(-0.105186 -0.116481 0)
(-0.094261 -0.118194 0)
(-0.0830277 -0.118057 0)
(-0.071659 -0.115973 0)
(-0.0603483 -0.111865 0)
(-0.0493081 -0.105693 0)
(-0.0387675 -0.0974496 0)
(-0.0289698 -0.0871688 0)
(-0.0201689 -0.0749295 0)
(-0.0126173 -0.0608567 0)
(-0.00655527 -0.0451221 0)
(-0.00230327 -0.0279427 0)
(-0.000340375 -0.00959203 0)
(-0.0003565 0.010996 0)
(-0.00236594 0.0315127 0)
(-0.00667043 0.0502962 0)
(-0.0127535 0.0671584 0)
(-0.0202736 0.0819705 0)
(-0.0289836 0.0946484 0)
(-0.038634 0.10515 0)
(-0.0489822 0.113471 0)
(-0.059803 0.11964 0)
(-0.0708894 0.123715 0)
(-0.0820535 0.125776 0)
(-0.093127 0.12592 0)
(-0.103961 0.124258 0)
(-0.114424 0.120913 0)
(-0.124403 0.11601 0)
(-0.1338 0.10968 0)
(-0.142533 0.102055 0)
(-0.15053 0.0932652 0)
(-0.157732 0.0834403 0)
(-0.164089 0.0727078 0)
(-0.169558 0.0611932 0)
(-0.174103 0.0490204 0)
(-0.177694 0.0363119 0)
(-0.180305 0.0231903 0)
(-0.181915 0.00977891 0)
(-0.182505 -0.00379704 0)
(-0.182062 -0.017409 0)
(-0.180574 -0.0309243 0)
(-0.178037 -0.0442048 0)
(-0.174449 -0.0571063 0)
(-0.169818 -0.069478 0)
(-0.164157 -0.0811622 0)
(-0.157492 -0.0919952 0)
(-0.14986 -0.101807 0)
(-0.141312 -0.110425 0)
(-0.131917 -0.117674 0)
(-0.12176 -0.12338 0)
(-0.11095 -0.127375 0)
(-0.0996168 -0.1295 0)
(-0.0879158 -0.129611 0)
(-0.0760255 -0.127588 0)
(-0.0641492 -0.123333 0)
(-0.0525129 -0.116784 0)
(-0.0413632 -0.107919 0)
(-0.0309642 -0.0967574 0)
(-0.0215938 -0.0833707 0)
(-0.0135305 -0.0678803 0)
(-0.00704076 -0.0504604 0)
(-0.00247822 -0.0313364 0)
(-0.00036738 -0.0107972 0)
(-0.000378995 0.012229 0)
(-0.00250935 0.0349402 0)
(-0.00706496 0.055638 0)
(-0.0134905 0.074132 0)
(-0.0214165 0.0902971 0)
(-0.0305742 0.104058 0)
(-0.0406937 0.115385 0)
(-0.0515145 0.124291 0)
(-0.0627959 0.130822 0)
(-0.0743191 0.135057 0)
(-0.0858874 0.137095 0)
(-0.0973268 0.137055 0)
(-0.108485 0.135069 0)
(-0.119231 0.131277 0)
(-0.129452 0.125823 0)
(-0.139055 0.118853 0)
(-0.14796 0.110512 0)
(-0.156101 0.100944 0)
(-0.163425 0.0902877 0)
(-0.169887 0.0786801 0)
(-0.175449 0.0662535 0)
(-0.18008 0.0531373 0)
(-0.183753 0.0394588 0)
(-0.186445 0.0253443 0)
(-0.188136 0.0109205 0)
(-0.188809 -0.00368429 0)
(-0.188447 -0.0183384 0)
(-0.187039 -0.0329053 0)
(-0.184574 -0.0472427 0)
(-0.181046 -0.0612007 0)
(-0.176457 -0.0746214 0)
(-0.170814 -0.0873385 0)
(-0.164132 -0.099177 0)
(-0.156442 -0.109954 0)
(-0.147786 -0.119481 0)
(-0.138224 -0.127564 0)
(-0.127838 -0.134009 0)
(-0.116731 -0.138625 0)
(-0.105031 -0.141228 0)
(-0.0928938 -0.141649 0)
(-0.0805043 -0.13974 0)
(-0.0680744 -0.135379 0)
(-0.0558439 -0.12848 0)
(-0.0440774 -0.118999 0)
(-0.0330615 -0.106941 0)
(-0.0231004 -0.0923638 0)
(-0.0145009 -0.0753845 0)
(-0.00755912 -0.0561787 0)
(-0.00266605 -0.0349801 0)
(-0.000396652 -0.0120941 0)
(-0.000402789 0.0135365 0)
(-0.00265993 0.0385684 0)
(-0.0074772 0.0612819 0)
(-0.014257 0.0814841 0)
(-0.0225989 0.0990545 0)
(-0.0322104 0.113928 0)
(-0.0427992 0.12609 0)
(-0.0540852 0.135573 0)
(-0.0658117 0.142445 0)
(-0.0777476 0.146807 0)
(-0.0896878 0.148783 0)
(-0.101453 0.148517 0)
(-0.112889 0.146162 0)
(-0.123866 0.14188 0)
(-0.134275 0.135834 0)
(-0.144025 0.128188 0)
(-0.153045 0.119101 0)
(-0.161275 0.108731 0)
(-0.168669 0.0972257 0)
(-0.175187 0.084731 0)
(-0.180799 0.0713857 0)
(-0.18548 0.057324 0)
(-0.189208 0.0426771 0)
(-0.191963 0.0275738 0)
(-0.193727 0.0121428 0)
(-0.194483 -0.00348588 0)
(-0.194215 -0.0191789 0)
(-0.192908 -0.0347978 0)
(-0.190547 -0.050197 0)
(-0.187121 -0.0652225 0)
(-0.182623 -0.0797107 0)
(-0.177053 -0.0934872 0)