/*--------------------------------*- C++ -*----------------------------------*\
| =========                 |                                                 |
| \\      /  F ield         | OpenFOAM: The Open Source CFD Toolbox           |
|  \\    /   O peration     | Version:  v2012                                 |
|   \\  /    A nd           | Website:  www.openfoam.com                      |
|    \\/     M anipulation  |                                                 |
\*---------------------------------------------------------------------------*/
FoamFile
{
    version     2.0;
    format      ascii;
    class       volScalarField;
    location    "0.15";
    object      p;
}
// * * * * * * * * * * * * * * * * * * * * * * * * * * * * * * * * * * * * * //

dimensions      [0 2 -2 0 0 0 0];


internalField   nonuniform List<scalar> 
1250
(
9.04756e-06
-0.000549787
-0.0022829
-0.00489917
-0.00798155
-0.011201
-0.0143009
-0.0170815
-0.0193919
-0.0211214
-0.0221924
-0.0225546
-0.02218
-0.02106
-0.0192019
-0.0166267
-0.0133672
-0.00946631
-0.00497587
4.46396e-05
0.00552902
0.0114052
0.0175962
0.0240207
0.030594
0.000579117
1.73616e-05
-0.0014194
-0.00350886
-0.00595719
-0.0085236
-0.0110062
-0.0132385
-0.0150883
-0.0164549
-0.0172643
-0.0174662
-0.0170304
-0.0159438
-0.0142087
-0.0118401
-0.0088641
-0.0053169
-0.00124303
0.00330543
0.00826988
0.0135861
0.019185
0.0249934
0.030935
0.00231598
0.0014544
7.34363e-06
-0.00188015
-0.00402086
-0.00623208
-0.00835302
-0.0102473
-0.011803
-0.0129318
-0.013567
-0.0136621
-0.0131875
-0.0121293
-0.0104874
-0.00827322
-0.00550897
-0.00222595
0.00153638
0.00573144
0.0103064
0.0152029
0.0203581
0.0257053
0.0311744
0.00496081
0.00355827
0.00187158
-4.5334e-05
-0.00210896
-0.00417784
-0.00612263
-0.00783391
-0.00921962
-0.0102053
-0.0107339
-0.0107644
-0.0102709
-0.00924059
-0.00767298
-0.00557821
-0.00297601
0.000105363
0.00363008
0.00755559
0.0118334
0.01641
0.0212271
0.0262232
0.0313333
0.00813499
0.00606296
0.00400947
0.00193623
-0.000176324
-0.00222044
-0.00409318
-0.00570984
-0.00699762
-0.00789623
-0.00835882
-0.00835157
-0.00785299
-0.00685293
-0.00535176
-0.00335928
-0.000893909
0.00201823
0.00534405
0.00904427
0.013074
0.0173836
0.0219191
0.026623
0.0314349
0.0115505
0.0087547
0.0062585
0.00394065
0.00168623
-0.000423528
-0.00230715
-0.00390167
-0.00515195
-0.0060113
-0.0064432
-0.00642143
-0.00592975
-0.00496144
-0.00351866
-0.0016118
0.000741217
0.00351555
0.00668009
0.010198
0.0140274
0.0181217
0.0224305
0.0268998
0.0314728
0.0149875
0.0114554
0.00847401
0.00585076
0.00338584
0.00114066
-0.000819952
-0.00245152
-0.00371456
-0.00457487
-0.00500583
-0.00498886
-0.00451335
-0.0035765
-0.00218294
-0.000344314
0.00192119
0.00458933
0.00763022
0.0110088
0.0146854
0.018616
0.0227528
0.0270448
0.0314381
0.0182752
0.0140156
0.0105293
0.00756248
0.0048403
0.00240993
0.000323569
-0.00138968
-0.00270386
-0.00359599
-0.00404863
-0.00405057
-0.00359689
-0.00268895
-0.00133428
0.000453725
0.00265607
0.0052485
0.00820177
0.011482
0.0150511
0.0188668
0.0228836
0.0270526
0.0313222
0.02128
0.0163109
0.0123136
0.00898064
0.0059707
0.00332092
0.00107424
-0.000752915
-0.00214616
-0.00309236
-0.00358245
-0.00361214
-0.00318205
-0.0022978
-0.000970013
0.000785798
0.00294942
0.00549611
0.00839678
0.0116182
0.0151232
0.018871
0.0228175
0.0269155
0.0311151
0.0238956
0.0182367
0.0137294
0.010018
0.00670122
0.00380938
0.00137883
-0.000584412
-0.00207578
-0.00309075
-0.0036278
-0.00368903
-0.00328036
-0.00241161
-0.00109663
0.000646741
0.00279676
0.00532784
0.00821059
0.011412
0.0148955
0.0186211
0.0225457
0.0266232
0.0308049
0.0260339
0.0197033
0.01469
0.0105943
0.00695946
0.00381151
0.00118218
-0.000931109
-0.00253215
-0.00362394
-0.00421171
-0.00430348
-0.00391014
-0.00304563
-0.00172705
2.52942e-05
0.00218791
0.00473406
0.00763377
0.0108538
0.0143578
0.0181061
0.0220563
0.026163
0.0303779
0.0276194
0.0206311
0.0151165
0.0106344
0.00667578
0.00326399
0.000427687
-0.0018429
-0.00355879
-0.00472961
-0.00536667
-0.00548344
-0.00509554
-0.00422089
-0.00287981
-0.00109517
0.00110762
0.00370047
0.00665249
0.00993
0.0134964
0.0173122
0.0213351
0.0255199
0.0298188
0.0285836
0.0209472
0.0149354
0.0100668
0.00578216
0.00210345
-0.000942762
-0.00337244
-0.00520296
-0.00644987
-0.00713007
-0.00726209
-0.00686604
-0.0059637
-0.00457862
-0.00273626
-0.000464087
0.00220826
0.00524881
0.00862314
0.0122942
0.0162223
0.020365
0.024677
0.0291103
0.0288624
0.0205825
0.014076
0.00882152
0.00421116
0.000265882
-0.00298905
-0.00557509
-0.00751536
-0.00883088
-0.00954373
-0.00967725
-0.00925588
-0.00830516
-0.00685187
-0.00492411
-0.00255152
0.000234596
0.003401
0.00691233
0.0107309
0.0148165
0.0191263
0.0236148
0.0282335
0.0283924
0.0194693
0.0124684
0.00682915
0.00189479
-0.00231412
-0.00577323
-0.00850906
-0.0105501
-0.0119226
-0.0126536
-0.012771
-0.0123036
-0.0112807
-0.00973215
-0.00768892
-0.00518283
-0.00224701
0.00108391
0.00477349
0.00878322
0.0130723
0.0175972
0.0223119
0.0271675
0.0271098
0.0175391
0.0100423
0.00401903
-0.00123655
-0.00570411
-0.00936001
-0.0122357
-0.0143649
-0.0157788
-0.0165095
-0.0165895
-0.0160518
-0.0149295
-0.0132558
-0.0110644
-0.00838958
-0.00526625
-0.00173059
0.00217977
0.00642537
0.0109646
0.0157535
0.0207451
0.0258899
0.0249479
0.0147214
0.00672502
0.000318094
-0.00525515
-0.00997463
-0.0138174
-0.0168197
-0.0190208
-0.0204569
-0.021165
-0.0211824
-0.0205465
-0.0192943
-0.0174624
-0.0150875
-0.0122062
-0.00885548
-0.00507312
-0.000897993
0.00362945
0.00846681
0.0135693
0.0188894
0.0243767
0.0218366
0.0109419
0.00244034
-0.00435029
-0.010237
-0.0152
-0.0192171
-0.0223299
-0.0245829
-0.026018
-0.0266772
-0.0266029
-0.0258371
-0.0244208
-0.0223944
-0.0197975
-0.0166694
-0.0130492
-0.00897618
-0.00449066
0.000365953
0.00555046
0.0110174
0.0167186
0.0226028
0.0177004
0.00612167
-0.0028927
-0.0100675
-0.0162627
-0.0214591
-0.0256356
-0.0288391
-0.0311204
-0.032527
-0.0331066
-0.0329072
-0.0319755
-0.030357
-0.0280961
-0.0252356
-0.0218175
-0.017883
-0.0134734
-0.00863011
-0.00339549
0.00218649
0.0080698
0.0142057
0.0205423
0.0124579
0.000175594
-0.00936107
-0.0169209
-0.0234188
-0.0288364
-0.0331542
-0.0364252
-0.0387067
-0.0400527
-0.0405174
-0.0401544
-0.0390161
-0.0371529
-0.0346134
-0.0314439
-0.0276893
-0.0233933
-0.0185987
-0.0133483
-0.00768526
-0.00165418
0.00469852
0.0113238
0.0181692
0.00602075
-0.00698862
-0.017059
-0.0250048
-0.0317984
-0.0374229
-0.0418604
-0.0451711
-0.0474199
-0.0486678
-0.0489764
-0.0484059
-0.047015
-0.0448595
-0.0419926
-0.0384646
-0.0343236
-0.0296155
-0.0243851
-0.0186761
-0.0125326
-0.00599955
0.000876612
0.00804676
0.0154585
-0.00170777
-0.0154718
-0.0260895
-0.0344223
-0.0415032
-0.0473169
-0.0518484
-0.0551659
-0.0573428
-0.0584488
-0.0585535
-0.0577252
-0.0560293
-0.0535279
-0.0502796
-0.0463389
-0.0417572
-0.0365832
-0.0308632
-0.0246421
-0.0179645
-0.0108753
-0.00342066
0.0043506
0.0123866
-0.0108337
-0.025385
-0.0365657
-0.0452864
-0.0526439
-0.0586257
-0.06322
-0.0665048
-0.0685635
-0.0694759
-0.0693211
-0.0681766
-0.0661159
-0.0632083
-0.0595181
-0.055105
-0.0500239
-0.0443262
-0.0380599
-0.0312709
-0.0240037
-0.016303
-0.00821432
0.000214695
0.00893309
-0.0214742
-0.0368511
-0.048613
-0.0577222
-0.0653431
-0.0714666
-0.076086
-0.0792905
-0.0811756
-0.081833
-0.0813535
-0.0798249
-0.0773307
-0.0739482
-0.0697486
-0.064797
-0.0591524
-0.052869
-0.0459963
-0.0385809
-0.0306672
-0.0222988
-0.0135199
-0.0043765
0.00508226
-0.0337589
-0.0500071
-0.0623717
-0.0718691
-0.0797362
-0.0859689
-0.0905669
-0.0936332
-0.0952779
-0.0956073
-0.0947257
-0.0927341
-0.0897268
-0.085791
-0.0810058
-0.0754423
-0.0691641
-0.0622279
-0.0546852
-0.0465825
-0.0379636
-0.0288705
-0.0193454
-0.0094315
0.000824732
-0.0478333
-0.0650073
-0.0779997
-0.0878838
-0.0959751
-0.102276
-0.106795
-0.109652
-0.110975
-0.110889
-0.109513
-0.106965
-0.103353
-0.0987737
-0.0933166
-0.0870593
-0.0800702
-0.0724092
-0.0641286
-0.0552751
-0.045891
-0.036016
-0.0256889
-0.0149496
-0.00384042
-0.0638609
-0.0820271
-0.0956769
-0.105944
-0.114231
-0.120547
-0.124915
-0.127476
-0.128378
-0.127769
-0.12579
-0.122576
-0.11825
-0.112924
-0.106697
-0.0996542
-0.0918693
-0.0834051
-0.0743149
-0.0646446
-0.0544341
-0.0437198
-0.0325363
-0.0209184
-0.00890341
-0.0820286
-0.101268
-0.11561
-0.126254
-0.134697
-0.140963
-0.145089
-0.147243
-0.147603
-0.146342
-0.143627
-0.139615
-0.13445
-0.128257
-0.121148
-0.113217
-0.104543
-0.0951911
-0.0852152
-0.0746594
-0.0635607
-0.0519505
-0.039858
-0.0273115
-0.0143414
-0.102552
-0.122964
-0.13804
-0.149049
-0.157598
-0.163725
-0.167494
-0.169103
-0.168769
-0.166698
-0.163088
-0.158124
-0.15197
-0.144772
-0.136654
-0.127719
-0.118053
-0.107722
-0.0967796
-0.085268
-0.0732189
-0.0606579
-0.0476067
-0.0340855
-0.020116
-0.125682
-0.147392
-0.16325
-0.174606
-0.18319
-0.189066
-0.192327
-0.19322
-0.192004
-0.188928
-0.18423
-0.178126
-0.17081
-0.162446
-0.153174
-0.143106
-0.132334
-0.120926
-0.108934
-0.0963942
-0.0833337
-0.0697695
-0.0557142
-0.0411779
-0.0261713
-0.15172
-0.174882
-0.19158
-0.203252
-0.211775
-0.217249
-0.219811
-0.219766
-0.217432
-0.213113
-0.207093
-0.199629
-0.190944
-0.181229
-0.170638
-0.159295
-0.147294
-0.134704
-0.121574
-0.107935
-0.0938037
-0.0791883
-0.0640895
-0.0485048
-0.0324318
-0.181026
-0.205835
-0.223439
-0.235379
-0.243709
-0.248581
-0.250192
-0.248927
-0.24518
-0.239322
-0.231697
-0.222609
-0.212317
-0.201038
-0.188943
-0.176165
-0.162802
-0.148921
-0.134565
-0.119755
-0.104499
-0.0887902
-0.0726162
-0.0559593
-0.0388011
-0.214043
-0.240747
-0.259333
-0.271462
-0.279414
-0.283413
-0.283746
-0.280899
-0.275367
-0.267608
-0.258035
-0.247009
-0.234832
-0.221745
-0.20794
-0.193555
-0.178689
-0.163404
-0.147733
-0.131687
-0.115258
-0.0984226
-0.0811522
-0.063411
-0.0451619
-0.251328
-0.28024
-0.299886
-0.312084
-0.319395
-0.322155
-0.320775
-0.315882
-0.308098
-0.29799
-0.286057
-0.272725
-0.25834
-0.243175
-0.227431
-0.211255
-0.194739
-0.177938
-0.16087
-0.143528
-0.125887
-0.107904
-0.0895297
-0.0707068
-0.0513765
-0.293586
-0.325104
-0.345893
-0.357966
-0.364261
-0.365281
-0.361613
-0.354073
-0.34345
-0.330444
-0.315658
-0.29959
-0.282633
-0.265085
-0.247159
-0.228999
-0.210687
-0.192262
-0.173722
-0.155038
-0.136161
-0.117026
-0.0975568
-0.0776729
-0.0572903
-0.341735
-0.376369
-0.398365
-0.410009
-0.414747
-0.413335
-0.406614
-0.395653
-0.381454
-0.364882
-0.346658
-0.327357
-0.307418
-0.28716
-0.266797
-0.246459
-0.226213
-0.206068
-0.185998
-0.165944
-0.145827
-0.125555
-0.105022
-0.0841195
-0.0627354
-0.396991
-0.435392
-0.458619
-0.469345
-0.471739
-0.466937
-0.45614
-0.440758
-0.422064
-0.401118
-0.378771
-0.355677
-0.332311
-0.308998
-0.28594
-0.263243
-0.240939
-0.219002
-0.197368
-0.175941
-0.154608
-0.13324
-0.1117
-0.0898473
-0.0675385
-0.461002
-0.504001
-0.528384
-0.537411
-0.536301
-0.526771
-0.510533
-0.489446
-0.465118
-0.438833
-0.411577
-0.384071
-0.356806
-0.330093
-0.3041
-0.278886
-0.254433
-0.230666
-0.20747
-0.184704
-0.16221
-0.139821
-0.117362
-0.0946568
-0.0715293
-0.536061
-0.58471
-0.609959
-0.616024
-0.609693
-0.59356
-0.570057
-0.541626
-0.510272
-0.47752
-0.444477
-0.4119
-0.380264
-0.349829
-0.320698
-0.292856
-0.266214
-0.240627
-0.215918
-0.19189
-0.168335
-0.145037
-0.121784
-0.0983598
-0.0745526
-0.625455
-0.681044
-0.706441
-0.707484
-0.693365
-0.668003
-0.634814
-0.596968
-0.556918
-0.516415
-0.47664
-0.43833
-0.401886
-0.367466
-0.335063
-0.304556
-0.275755
-0.248427
-0.222318
-0.197162
-0.172694
-0.148648
-0.124766
-0.100793
-0.0764808
-0.734069
-0.798062
-0.82202
-0.814654
-0.788903
-0.750639
-0.70458
-0.654756
-0.604063
-0.554407
-0.506945
-0.462295
-0.420698
-0.382138
-0.346441
-0.313337
-0.282506
-0.253603
-0.226282
-0.2002
-0.175025
-0.150441
-0.126142
-0.101832
-0.0772277
-0.869472
-0.943185
-0.962378
-0.941006
-0.897858
-0.841598
-0.778562
-0.713676
-0.650172
-0.589932
-0.533916
-0.48247
-0.435545
-0.392861
-0.354009
-0.31852
-0.285911
-0.255706
-0.227452
-0.200721
-0.175114
-0.150258
-0.1258
-0.101408
-0.0767624
-1.04398
-1.12751
-1.13515
-1.09051
-1.02138
-0.94018
-0.855015
-0.771533
-0.692975
-0.620864
-0.555674
-0.497252
-0.445101
-0.398559
-0.356905
-0.319426
-0.285444
-0.254335
-0.225529
-0.198511
-0.172812
-0.148005
-0.123697
-0.0995182
-0.0751195
-1.27887
-1.36792
-1.35023
-1.26708
-1.1594
-1.04408
-0.930659
-0.824856
-0.729239
-0.644399
-0.569894
-0.504775
-0.447901
-0.398103
-0.354277
-0.315422
-0.280646
-0.249166
-0.220297
-0.193437
-0.168055
-0.143675
-0.119868
-0.0962358
-0.0724063
-1.61284
-1.69012
-1.61927
-1.47285
-1.30887
-1.148
-0.999726
-0.868331
-0.754471
-0.656933
-0.573786
-0.502935
-0.442389
-0.390367
-0.345326
-0.305957
-0.271152
-0.239977
-0.211641
-0.185467
-0.160872
-0.137345
-0.11443
-0.0917112
-0.0688014
-2.11666
-2.13158
-1.95344
-1.70516
-1.4612
-1.24195
-1.05306
-0.89444
-0.762875
-0.654176
-0.564265
-0.489566
-0.42708
-0.374357
-0.329414
-0.290647
-0.256761
-0.226696
-0.199581
-0.174687
-0.1514
-0.129189
-0.107585
-0.0861685
-0.064548
-2.91879
-2.74195
-2.3591
-1.95413
-1.60133
-1.31129
-1.07885
-0.894526
-0.748477
-0.632189
-0.53885
-0.463185
-0.401162
-0.349703
-0.306453
-0.269588
-0.237679
-0.209597
-0.184429
-0.16143
-0.139978
-0.119543
-0.0996645
-0.0799293
-0.0599574
-4.30825
-3.58022
-2.81233
-2.18392
-1.69674
-1.33086
-1.05968
-0.857429
-0.704493
-0.587052
-0.49542
-0.422775
-0.364275
-0.316433
-0.276693
-0.243145
-0.214333
-0.18913
-0.166639
-0.146138
-0.127031
-0.108814
-0.0910521
-0.073356
-0.0553698
-7.04616
-4.67302
-3.1391
-2.23593
-1.63552
-1.22711
-0.948424
-0.752902
-0.611088
-0.505295
-0.424448
-0.361325
-0.311081
-0.270366
-0.236797
-0.208625
-0.184537
-0.163524
-0.144791
-0.127697
-0.111717
-0.0964051
-0.0813785
-0.0662946
-0.0508396
-11.6813
-5.75831
-2.98802
-1.87141
-1.28234
-0.928273
-0.70689
-0.559728
-0.455668
-0.378796
-0.320228
-0.274528
-0.238157
-0.208697
-0.184421
-0.164054
-0.146628
-0.131387
-0.117731
-0.105168
-0.0932933
-0.0817582
-0.0702603
-0.0585281
-0.0463109
)
;

boundaryField
{
    movingWall
    {
        type            zeroGradient;
    }
    fixedWalls
    {
        type            zeroGradient;
    }
    frontAndBack
    {
        type            empty;
    }
    procBoundary0to1
    {
        type            processor;
        value           nonuniform List<scalar> 
50
(
0.0372293
0.0369316
0.0366938
0.0364909
0.0362928
0.0360913
0.0358774
0.0356394
0.0353648
0.0350403
0.0346511
0.0341816
0.0336146
0.0329315
0.0321121
0.0311351
0.0299774
0.0286153
0.0270241
0.0251789
0.0230555
0.0206312
0.0178856
0.0148029
0.0113725
0.00759174
0.00346738
-0.000981872
-0.00572329
-0.0107087
-0.015871
-0.0211259
-0.0263698
-0.0314817
-0.0363265
-0.0407592
-0.0446321
-0.0478044
-0.0501528
-0.051584
-0.0520484
-0.0515511
-0.0501619
-0.0480193
-0.0453288
-0.0423511
-0.039387
-0.0367551
-0.0347154
-0.03337
)
;
    }
}


// ************************************************************************* //
