/*--------------------------------*- C++ -*----------------------------------*\
| =========                 |                                                 |
| \\      /  F ield         | OpenFOAM: The Open Source CFD Toolbox           |
|  \\    /   O peration     | Version:  v2012                                 |
|   \\  /    A nd           | Website:  www.openfoam.com                      |
|    \\/     M anipulation  |                                                 |
\*---------------------------------------------------------------------------*/
FoamFile
{
    version     2.0;
    format      ascii;
    class       volScalarField;
    location    "0.1";
    object      p;
}
// * * * * * * * * * * * * * * * * * * * * * * * * * * * * * * * * * * * * * //

dimensions      [0 2 -2 0 0 0 0];


internalField   nonuniform List<scalar> 
1250
(
1.30265e-09
-0.00054873
-0.00225002
-0.004825
-0.00786367
-0.0110386
-0.014095
-0.0168347
-0.0191081
-0.0208054
-0.0218497
-0.022191
-0.0218018
-0.0206733
-0.0188127
-0.0162408
-0.01299
-0.0091032
-0.0046317
0.000365447
0.00582259
0.0116683
0.0178264
0.0242167
0.0307557
0.000570791
2.33127e-05
-0.00138681
-0.00344307
-0.00585521
-0.00838427
-0.01083
-0.0130273
-0.014845
-0.0161833
-0.0169689
-0.0171518
-0.0167021
-0.0156068
-0.0138679
-0.0115004
-0.00853023
-0.00499328
-0.000933878
0.00359628
0.00853903
0.0138306
0.0194026
0.0251828
0.0310962
0.00230573
0.00145859
3.41594e-05
-0.00182502
-0.00393433
-0.0061129
-0.00820138
-0.0100646
-0.0115916
-0.0126948
-0.0133083
-0.0133856
-0.0128977
-0.0118305
-0.0101839
-0.00796914
-0.00520836
-0.00193269
0.00181862
0.00599928
0.0105568
0.0154331
0.020566
0.0258897
0.0313355
0.00493815
0.00355228
0.00188751
-3.32874e-06
-0.00203823
-0.00407728
-0.0059924
-0.00767523
-0.00903457
-0.00999663
-0.0105048
-0.0105185
-0.0100119
-0.00897236
-0.0073992
-0.00530249
-0.00270188
0.000374502
0.00389097
0.00780521
0.012069
0.016629
0.0214275
0.0264039
0.0314947
0.00809038
0.00604024
0.00401033
0.00196267
-0.000122426
-0.0021384
-0.00398338
-0.00557348
-0.0068366
-0.00771302
-0.00815628
-0.00813286
-0.00762136
-0.00661169
-0.00510415
-0.00310847
-0.000642978
0.00226628
0.00558635
0.00927809
0.0132969
0.0175932
0.0221133
0.026801
0.0315974
0.011479
0.0087113
0.00624158
0.00395007
0.0017229
-0.000359529
-0.00221654
-0.00378577
-0.00501258
-0.00585076
-0.00626409
-0.00622655
-0.00572198
-0.00474367
-0.00329374
-0.0013825
0.000972193
0.00374557
0.00690659
0.0104186
0.0142397
0.0183236
0.02262
0.0270761
0.031637
0.0148873
0.0113896
0.00843816
0.00584277
0.00340562
0.00118764
-0.000746913
-0.00235393
-0.00359428
-0.0044341
-0.00484696
-0.00481442
-0.00432591
-0.00337863
-0.00197716
-0.000133069
0.00213553
0.00480444
0.00784382
0.0112187
0.0148895
0.0188122
0.0229392
0.0272208
0.0316049
0.0181469
0.0139277
0.0104749
0.00753774
0.00484427
0.0024414
0.000380968
-0.00130812
-0.00260009
-0.00347213
-0.00390693
-0.00389334
-0.00342646
-0.00250763
-0.0011443
0.000650206
0.00285696
0.00545171
0.00840527
0.0116838
0.0152493
0.0190594
0.0230687
0.0272296
0.0314926
0.0211262
0.0162027
0.0122422
0.0089408
0.00596067
0.00333891
0.00111824
-0.000684927
-0.00205621
-0.00298254
-0.00345489
-0.00346899
-0.00302542
-0.00212978
-0.000792604
0.000970685
0.00313992
0.00569036
0.00859293
0.0118145
0.0153178
0.019062
0.0230031
0.0270952
0.0312903
0.0237203
0.0181115
0.0136437
0.00996561
0.00667966
0.00381637
0.001412
-0.000527307
-0.00199684
-0.00299204
-0.00351136
-0.00355685
-0.00313438
-0.00225372
-0.000928632
0.000823125
0.00297986
0.00551599
0.00840213
0.0116053
0.0150888
0.0188126
0.0227335
0.0268069
0.0309862
0.0258422
0.0195651
0.0145937
0.0105326
0.00692943
0.00381046
0.00120743
-0.000881941
-0.00246123
-0.00353331
-0.00410332
-0.00417916
-0.00377167
-0.00289472
-0.00156534
0.000196246
0.00236659
0.00491897
0.0078234
0.0110466
0.0145522
0.0183003
0.0222484
0.0263525
0.0305667
0.0274172
0.0204849
0.0150138
0.0105672
0.00664077
0.0032582
0.000448234
-0.00179852
-0.00349277
-0.00464394
-0.00526319
-0.00536384
-0.00496144
-0.00407384
-0.00272131
-0.00092663
0.00128483
0.00388496
0.00684288
0.0101248
0.0136942
0.0175112
0.0215334
0.0257171
0.0300166
0.0283775
0.0207985
0.014831
0.00999823
0.00574604
0.00209654
-0.000923483
-0.00332953
-0.00513858
-0.00636594
-0.00702831
-0.00714404
-0.00673318
-0.00581743
-0.0044203
-0.00256717
-0.000285485
0.00239511
0.0054426
0.00882252
0.0124978
0.0164283
0.0205716
0.0248837
0.0293189
0.0286592
0.0204371
0.0139749
0.00875626
0.00417807
0.000261677
-0.00296744
-0.0055302
-0.0074493
-0.00874545
-0.0094405
-0.00955763
-0.00912118
-0.00815667
-0.00669079
-0.00475161
-0.00236873
0.000426492
0.00360077
0.0071187
0.0109425
0.0150317
0.0193432
0.023833
0.0284545
0.0281993
0.0193332
0.012376
0.0067719
0.00186903
-0.00231168
-0.00574559
-0.00845868
-0.010479
-0.0118324
-0.0125457
-0.0126468
-0.0121641
-0.011127
-0.00956547
-0.00751023
-0.00499318
-0.00204749
0.00129214
0.00498921
0.00900512
0.0132987
0.0178264
0.0225434
0.0274026
0.0269338
0.0174184
0.00996389
0.00397456
-0.00125065
-0.00569105
-0.00932265
-0.0121763
-0.0142853
-0.0156806
-0.0163939
-0.0164576
-0.0159046
-0.0147679
-0.0130808
-0.0108769
-0.00819054
-0.00505667
-0.00151157
0.00240708
0.00665971
0.0112044
0.0159968
0.0209915
0.0261406
0.0247961
0.014622
0.00666588
0.000291156
-0.0052533
-0.00994701
-0.0137666
-0.0167479
-0.0189296
-0.0203476
-0.0210386
-0.02104
-0.0203888
-0.0191221
-0.0172766
-0.0148888
-0.0119954
-0.00863358
-0.00484113
-0.000657009
0.0038782
0.00872172
0.0138286
0.0191525
0.0246445
0.0217157
0.0108698
0.0024056
-0.0043551
-0.010215
-0.015154
-0.0191494
-0.0222424
-0.0244769
-0.0258946
-0.0265373
-0.0264472
-0.0256663
-0.0242355
-0.0221953
-0.0195852
-0.0164447
-0.0128129
-0.00872926
-0.00423413
0.000630889
0.00582222
0.0112942
0.0169998
0.0228891
0.0176168
0.00608227
-0.00289821
-0.0100459
-0.0162167
-0.0213911
-0.0255477
-0.0287328
-0.0309968
-0.0323869
-0.0329507
-0.0327359
-0.0317893
-0.0301564
-0.0278816
-0.0250077
-0.0215769
-0.0176305
-0.0132098
-0.00835638
-0.00311282
0.00247655
0.00836551
0.0145063
0.0208482
0.0124174
0.00017393
-0.00933294
-0.0168688
-0.0233451
-0.0287433
-0.0330431
-0.0362973
-0.0385628
-0.0398934
-0.040343
-0.0399653
-0.0388125
-0.0369351
-0.0343817
-0.0311988
-0.0274313
-0.023123
-0.018317
-0.013056
-0.0073836
-0.00134464
0.00501423
0.0116448
0.0184958
0.00602855
-0.00694813
-0.0169934
-0.0249189
-0.0316941
-0.0373017
-0.0417235
-0.0450193
-0.0472535
-0.0484873
-0.0487818
-0.0481973
-0.0467924
-0.044623
-0.0417423
-0.0382009
-0.0340468
-0.0293263
-0.0240841
-0.0183642
-0.012211
-0.00566967
0.00121312
0.00838894
0.0158063
-0.00164736
-0.0153855
-0.0259831
-0.0342996
-0.0413655
-0.0471654
-0.0516836
-0.0549882
-0.0571523
-0.0582454
-0.0583372
-0.0574956
-0.0557864
-0.0532716
-0.0500097
-0.0460556
-0.0414608
-0.0362742
-0.0305422
-0.0243101
-0.0176224
-0.0105245
-0.00306287
0.00471436
0.0127559
-0.0107173
-0.02525
-0.036416
-0.0451248
-0.052471
-0.058442
-0.0630258
-0.0662999
-0.0683476
-0.0692486
-0.0690821
-0.0679253
-0.065852
-0.0629314
-0.0592281
-0.0548017
-0.0497076
-0.0439972
-0.0377188
-0.0309184
-0.023641
-0.0159313
-0.00783519
0.000600049
0.00932397
-0.0212993
-0.0366654
-0.0484185
-0.0575201
-0.0651336
-0.0712497
-0.0758613
-0.0790574
-0.0809335
-0.0815812
-0.0810913
-0.0795517
-0.0770456
-0.0736508
-0.0694384
-0.0644738
-0.0588162
-0.0525201
-0.0456352
-0.0382083
-0.030284
-0.0219064
-0.0131198
-0.00397
0.00549417
-0.0335245
-0.0497697
-0.0621315
-0.0716259
-0.0794897
-0.0857183
-0.0903115
-0.0933718
-0.0950097
-0.0953311
-0.0944406
-0.092439
-0.0894209
-0.0854735
-0.080676
-0.0750998
-0.0688087
-0.0618599
-0.0543048
-0.0461905
-0.0375609
-0.0284583
-0.0189251
-0.00900463
0.0012568
-0.0475391
-0.0647184
-0.077714
-0.0875998
-0.0956918
-0.101992
-0.106509
-0.109363
-0.110681
-0.110589
-0.109206
-0.106649
-0.103027
-0.0984372
-0.0929683
-0.0866987
-0.079697
-0.0720232
-0.0637303
-0.054865
-0.04547
-0.0355852
-0.0252497
-0.0145036
-0.00338942
-0.0635082
-0.0816877
-0.0953468
-0.10562
-0.113912
-0.120231
-0.1246
-0.12716
-0.12806
-0.127447
-0.125462
-0.12224
-0.117906
-0.11257
-0.106332
-0.0992771
-0.0914799
-0.083003
-0.0739005
-0.0642181
-0.0539965
-0.0432722
-0.0320799
-0.0204551
-0.0084352
-0.0816197
-0.10088
-0.115238
-0.125893
-0.134344
-0.140617
-0.144747
-0.146902
-0.147262
-0.145999
-0.14328
-0.139263
-0.13409
-0.127888
-0.120769
-0.112826
-0.10414
-0.0947752
-0.0847868
-0.074219
-0.0631088
-0.0514883
-0.0393867
-0.026833
-0.0138582
-0.10209
-0.122532
-0.137628
-0.148653
-0.157214
-0.163351
-0.167126
-0.168741
-0.168409
-0.166338
-0.162726
-0.157757
-0.151597
-0.144391
-0.136263
-0.127317
-0.117638
-0.107295
-0.0963402
-0.0848162
-0.0727555
-0.0601837
-0.047123
-0.0335944
-0.0196204
-0.125173
-0.146919
-0.162803
-0.174179
-0.182778
-0.188668
-0.191939
-0.192838
-0.191626
-0.188553
-0.183855
-0.177748
-0.170427
-0.162056
-0.152774
-0.142696
-0.131912
-0.120492
-0.108486
-0.0959344
-0.0828618
-0.0692865
-0.0552212
-0.0406771
-0.025666
-0.151169
-0.174374
-0.191103
-0.202798
-0.211341
-0.216831
-0.219405
-0.219369
-0.217042
-0.212727
-0.206709
-0.199244
-0.190555
-0.180834
-0.170234
-0.158881
-0.146868
-0.134266
-0.121123
-0.10747
-0.0933269
-0.0786998
-0.0635904
-0.0479974
-0.0319199
-0.18044
-0.205298
-0.222938
-0.234904
-0.243256
-0.248147
-0.249774
-0.248521
-0.244782
-0.238931
-0.231309
-0.222221
-0.211927
-0.200642
-0.188539
-0.175751
-0.162376
-0.148483
-0.134113
-0.11929
-0.104021
-0.0882997
-0.0721145
-0.0554488
-0.038286
-0.21343
-0.240188
-0.258812
-0.270972
-0.278949
-0.282969
-0.28332
-0.280488
-0.274967
-0.267216
-0.257648
-0.246624
-0.234445
-0.221354
-0.207541
-0.193146
-0.178268
-0.16297
-0.147286
-0.131226
-0.114782
-0.0979339
-0.0806515
-0.0629009
-0.0446469
-0.250697
-0.279666
-0.299355
-0.311585
-0.318923
-0.321707
-0.320347
-0.315471
-0.307701
-0.297603
-0.285677
-0.272348
-0.257963
-0.242793
-0.227042
-0.210856
-0.194328
-0.177513
-0.16043
-0.143074
-0.125417
-0.107421
-0.0890336
-0.0702005
-0.0508651
-0.292945
-0.324524
-0.345357
-0.357465
-0.36379
-0.364835
-0.36119
-0.353669
-0.343062
-0.330068
-0.31529
-0.299226
-0.282269
-0.264718
-0.246785
-0.228614
-0.21029
-0.19185
-0.173294
-0.154595
-0.135702
-0.116552
-0.0970689
-0.0771739
-0.0567855
-0.341095
-0.375791
-0.397833
-0.409512
-0.414282
-0.412898
-0.406201
-0.395261
-0.38108
-0.364522
-0.346307
-0.327012
-0.307074
-0.286813
-0.266442
-0.246094
-0.225834
-0.205674
-0.185587
-0.165516
-0.145382
-0.125094
-0.104546
-0.083631
-0.0622405
-0.396362
-0.434824
-0.458098
-0.468861
-0.471287
-0.466515
-0.455744
-0.440386
-0.421711
-0.40078
-0.378444
-0.355356
-0.331991
-0.308675
-0.285609
-0.262901
-0.240582
-0.218629
-0.196977
-0.175532
-0.15418
-0.132795
-0.111238
-0.0893723
-0.0670561
-0.460393
-0.503453
-0.527881
-0.536945
-0.535869
-0.52637
-0.51016
-0.489098
-0.46479
-0.438522
-0.411279
-0.383779
-0.356515
-0.329799
-0.303797
-0.278571
-0.254103
-0.230318
-0.207102
-0.184316
-0.161802
-0.139394
-0.116917
-0.0941978
-0.0710619
-0.535482
-0.584189
-0.609483
-0.615584
-0.609287
-0.593186
-0.569713
-0.541308
-0.509976
-0.477242
-0.444212
-0.411641
-0.380006
-0.349568
-0.320427
-0.292572
-0.265912
-0.240306
-0.215576
-0.191527
-0.16795
-0.144632
-0.121359
-0.0979189
-0.0741019
-0.624915
-0.680557
-0.705997
-0.707075
-0.692991
-0.667662
-0.634503
-0.596684
-0.556658
-0.516173
-0.476411
-0.438108
-0.401664
-0.36724
-0.334826
-0.304304
-0.275485
-0.248136
-0.222004
-0.196825
-0.172333
-0.148265
-0.124362
-0.100372
-0.0760481
-0.733575
-0.797616
-0.821613
-0.814282
-0.788565
-0.750334
-0.704307
-0.65451
-0.603842
-0.554204
-0.506755
-0.462112
-0.420515
-0.381949
-0.34624
-0.31312
-0.282268
-0.253343
-0.225997
-0.19989
-0.174691
-0.150082
-0.12576
-0.101432
-0.0768139
-0.86903
-0.942785
-0.962013
-0.940674
-0.897559
-0.841334
-0.778329
-0.713472
-0.649992
-0.589771
-0.533767
-0.482327
-0.435401
-0.39271
-0.353844
-0.318338
-0.285707
-0.255478
-0.227198
-0.20044
-0.174806
-0.149924
-0.125442
-0.101029
-0.0763674
-1.0436
-1.12716
-1.13483
-1.09022
-1.02112
-0.939957
-0.854824
-0.771371
-0.692837
-0.620744
-0.555566
-0.497149
-0.444996
-0.398445
-0.356777
-0.319279
-0.285274
-0.254139
-0.225305
-0.198258
-0.172531
-0.147696
-0.123361
-0.0991594
-0.0747429
-1.27854
-1.36762
-1.34995
-1.26683
-1.15919
-1.0439
-0.930509
-0.824736
-0.729142
-0.64432
-0.569826
-0.504712
-0.447834
-0.398027
-0.354186
-0.31531
-0.280509
-0.249002
-0.220103
-0.193213
-0.167801
-0.143391
-0.119555
-0.0958973
-0.0720474
-1.61257
-1.68986
-1.61904
-1.47265
-1.3087
-1.14786
-0.999616
-0.86825
-0.754414
-0.656894
-0.573756
-0.502909
-0.442359
-0.390326
-0.34527
-0.305879
-0.271049
-0.239845
-0.211478
-0.185272
-0.160644
-0.137085
-0.114139
-0.0913921
-0.0684588
-2.11643
-2.13137
-1.95325
-1.705
-1.46106
-1.24184
-1.05299
-0.894395
-0.762854
-0.654172
-0.564272
-0.489575
-0.427086
-0.374353
-0.329392
-0.290604
-0.256691
-0.226596
-0.199448
-0.17452
-0.151199
-0.128952
-0.107315
-0.0858673
-0.06422
-2.9186
-2.74177
-2.35894
-1.954
-1.60122
-1.31122
-1.0788
-0.894513
-0.748489
-0.632219
-0.538891
-0.46323
-0.401203
-0.349735
-0.306468
-0.269579
-0.237644
-0.20953
-0.184327
-0.161292
-0.139802
-0.11933
-0.0994142
-0.0796443
-0.0596416
-4.3081
-3.58007
-2.81219
-2.18381
-1.69666
-1.33081
-1.05966
-0.857445
-0.704535
-0.587114
-0.495495
-0.422855
-0.364353
-0.316501
-0.276744
-0.243173
-0.214333
-0.189096
-0.166568
-0.146028
-0.126881
-0.108623
-0.09082
-0.0730852
-0.0550638
-7.04603
-4.67288
-3.13897
-2.23583
-1.63545
-1.22709
-0.948433
-0.752946
-0.611163
-0.505394
-0.424563
-0.361448
-0.311203
-0.27048
-0.236893
-0.208697
-0.184579
-0.16353
-0.144757
-0.12762
-0.111594
-0.0962363
-0.081164
-0.0660363
-0.0505407
-11.6812
-5.75816
-2.9879
-1.87132
-1.28228
-0.928263
-0.706926
-0.559808
-0.455785
-0.378943
-0.320397
-0.274708
-0.238339
-0.20887
-0.184577
-0.164184
-0.146724
-0.131443
-0.117741
-0.10513
-0.0932028
-0.0816146
-0.070064
-0.0582809
-0.0460162
)
;

boundaryField
{
    movingWall
    {
        type            zeroGradient;
    }
    fixedWalls
    {
        type            zeroGradient;
    }
    frontAndBack
    {
        type            empty;
    }
    procBoundary0to1
    {
        type            processor;
        value           nonuniform List<scalar> 
50
(
0.037356
0.0370641
0.0368314
0.0366331
0.0364398
0.0362434
0.0360351
0.0358033
0.0355359
0.0352194
0.0348395
0.0343806
0.0338256
0.0331557
0.0323511
0.0313902
0.03025
0.0289066
0.027335
0.0255103
0.023408
0.0210049
0.0182805
0.0152183
0.0118077
0.00804535
0.00393771
-0.000496828
-0.00522607
-0.0102018
-0.0153579
-0.0206096
-0.0258535
-0.0309688
-0.03582
-0.040262
-0.0441468
-0.0473331
-0.049697
-0.0511448
-0.0516261
-0.0511457
-0.0497727
-0.0476451
-0.0449677
-0.0420008
-0.0390448
-0.036418
-0.0343798
-0.0330317
)
;
    }
}


// ************************************************************************* //
