/*--------------------------------*- C++ -*----------------------------------*\
| =========                 |                                                 |
| \\      /  F ield         | OpenFOAM: The Open Source CFD Toolbox           |
|  \\    /   O peration     | Version:  v2012                                 |
|   \\  /    A nd           | Website:  www.openfoam.com                      |
|    \\/     M anipulation  |                                                 |
\*---------------------------------------------------------------------------*/
FoamFile
{
    version     2.0;
    format      ascii;
    class       volVectorField;
    location    "0.1";
    object      U;
}
// * * * * * * * * * * * * * * * * * * * * * * * * * * * * * * * * * * * * * //

dimensions      [0 1 -1 0 0 0 0];


internalField   nonuniform List<vector> 
1250
(
(3.24885e-05 -3.21772e-05 0)
(9.75943e-05 -3.99451e-05 0)
(0.000135353 -2.05543e-05 0)
(0.000104245 7.91274e-06 0)
(-9.63963e-06 3.74182e-05 0)
(-0.00020486 6.46928e-05 0)
(-0.000474153 8.84395e-05 0)
(-0.000807817 0.000108249 0)
(-0.00119504 0.000124097 0)
(-0.00162469 0.000136121 0)
(-0.00208575 0.000144523 0)
(-0.00256754 0.000149532 0)
(-0.00305991 0.000151386 0)
(-0.00355327 0.000150324 0)
(-0.00403868 0.000146583 0)
(-0.00450784 0.000140392 0)
(-0.00495314 0.000131979 0)
(-0.00536768 0.000121566 0)
(-0.00574522 0.000109369 0)
(-0.00608024 9.56048e-05 0)
(-0.00636792 8.04865e-05 0)
(-0.00660413 6.42284e-05 0)
(-0.0067855 4.70425e-05 0)
(-0.00690932 2.91381e-05 0)
(-0.00697365 1.07304e-05 0)
(4.07238e-05 -9.77699e-05 0)
(9.27253e-05 -9.12591e-05 0)
(4.43003e-05 1.49066e-05 0)
(-0.000167982 0.000160488 0)
(-0.000570675 0.000315071 0)
(-0.00116509 0.000462854 0)
(-0.00193899 0.000595616 0)
(-0.00287237 0.00070935 0)
(-0.00394084 0.000802339 0)
(-0.00511784 0.000874129 0)
(-0.00637602 0.000924993 0)
(-0.00768819 0.000955636 0)
(-0.00902789 0.000967026 0)
(-0.0103698 0.000960291 0)
(-0.01169 0.000936659 0)
(-0.0129661 0.000897421 0)
(-0.0141774 0.000843903 0)
(-0.0153052 0.000777453 0)
(-0.0163323 0.000699433 0)
(-0.0172436 0.000611221 0)
(-0.0180258 0.000514208 0)
(-0.0186676 0.0004098 0)
(-0.0191599 0.000299416 0)
(-0.0194951 0.000184489 0)
(-0.0196683 6.64998e-05 0)
(2.21959e-05 -0.000137248 0)
(-1.02241e-05 -4.42613e-05 0)
(-0.000232098 0.000237903 0)
(-0.000698944 0.000603173 0)
(-0.00143615 0.000991925 0)
(-0.00244517 0.00136829 0)
(-0.00371038 0.00171103 0)
(-0.00520498 0.00200819 0)
(-0.00689532 0.00225351 0)
(-0.00874373 0.0024443 0)
(-0.0107107 0.00258008 0)
(-0.0127561 0.00266186 0)
(-0.0148407 0.00269159 0)
(-0.0169262 0.00267185 0)
(-0.0189764 0.00260567 0)
(-0.0209571 0.00249635 0)
(-0.0228366 0.00234739 0)
(-0.0245859 0.00216242 0)
(-0.0261786 0.00194517 0)
(-0.0275913 0.00169945 0)
(-0.0288033 0.00142914 0)
(-0.0297974 0.0011382 0)
(-0.0305591 0.000830643 0)
(-0.0310772 0.000510549 0)
(-0.0313437 0.00018214 0)
(-4.89777e-06 -0.000110474 0)
(-0.000152345 0.000163884 0)
(-0.000593692 0.000703514 0)
(-0.00135825 0.0013653 0)
(-0.00246044 0.00206229 0)
(-0.00389761 0.00273789 0)
(-0.00564934 0.00335596 0)
(-0.00768264 0.00389452 0)
(-0.00995639 0.00434102 0)
(-0.0124243 0.00468914 0)
(-0.0150373 0.00493683 0)
(-0.0177452 0.00508492 0)
(-0.0204982 0.00513626 0)
(-0.0232478 0.00509509 0)
(-0.0259475 0.00496661 0)
(-0.0285534 0.00475672 0)
(-0.0310244 0.0044718 0)
(-0.0333228 0.00411855 0)
(-0.0354145 0.00370398 0)
(-0.037269 0.00323527 0)
(-0.0388595 0.00271979 0)
(-0.0401633 0.00216509 0)
(-0.0411616 0.00157887 0)
(-0.0418401 0.000968973 0)
(-0.0421883 0.000343515 0)
(-3.33297e-05 -2.65214e-06 0)
(-0.000306582 0.000562711 0)
(-0.000988955 0.00144304 0)
(-0.00207406 0.00247007 0)
(-0.00355883 0.00353495 0)
(-0.00543268 0.00456274 0)
(-0.00766825 0.00550304 0)
(-0.0102257 0.00632348 0)
(-0.0130569 0.00700439 0)
(-0.016108 0.00753513 0)
(-0.0193219 0.00791141 0)
(-0.0226404 0.00813352 0)
(-0.0260048 0.00820502 0)
(-0.0293583 0.00813182 0)
(-0.0326457 0.00792156 0)
(-0.0358151 0.00758308 0)
(-0.0388177 0.00712614 0)
(-0.0416085 0.00656115 0)
(-0.0441467 0.00589903 0)
(-0.0463959 0.00515112 0)
(-0.0483241 0.00432907 0)
(-0.049904 0.00344486 0)
(-0.0511133 0.00251076 0)
(-0.0519347 0.00153931 0)
(-0.0523559 0.000543444 0)
(-6.04458e-05 0.000186949 0)
(-0.000460371 0.00116074 0)
(-0.00139028 0.00247008 0)
(-0.00280477 0.00393184 0)
(-0.00467974 0.00542109 0)
(-0.00699371 0.00684798 0)
(-0.00971029 0.0081496 0)
(-0.0127816 0.00928382 0)
(-0.0161522 0.010224 0)
(-0.019761 0.010955 0)
(-0.0235439 0.01147 0)
(-0.0274352 0.0117685 0)
(-0.0313691 0.0118549 0)
(-0.0352814 0.0117366 0)
(-0.03911 0.011424 0)
(-0.042796 0.0109292 0)
(-0.0462841 0.0102657 0)
(-0.0495234 0.00944804 0)
(-0.0524674 0.00849177 0)
(-0.0550747 0.00741292 0)
(-0.0573089 0.00622814 0)
(-0.059139 0.00495455 0)
(-0.0605395 0.00360974 0)
(-0.0614908 0.00221174 0)
(-0.0619788 0.000779062 0)
(-8.54862e-05 0.000455111 0)
(-0.000608429 0.00195693 0)
(-0.00178396 0.00378685 0)
(-0.00352799 0.00575435 0)
(-0.00579385 0.00772361 0)
(-0.00854729 0.0095935 0)
(-0.0117412 0.0112909 0)
(-0.0153185 0.0127653 0)
(-0.0192156 0.0139837 0)
(-0.0233642 0.0149268 0)
(-0.0276933 0.0155854 0)
(-0.0321304 0.0159585 0)
(-0.0366033 0.016051 0)
(-0.0410413 0.0158724 0)
(-0.0453764 0.0154358 0)
(-0.0495438 0.0147569 0)
(-0.0534828 0.0138533 0)
(-0.0571372 0.0127442 0)
(-0.060456 0.0114501 0)
(-0.0633936 0.00999236 0)
(-0.0659097 0.00839314 0)
(-0.0679703 0.00667533 0)
(-0.0695474 0.00486245 0)
(-0.0706192 0.00297867 0)
(-0.0711703 0.00104877 0)
(-0.000108476 0.000797571 0)
(-0.000749218 0.00294592 0)
(-0.00216451 0.00538944 0)
(-0.00423347 0.00793505 0)
(-0.00688681 0.0104402 0)
(-0.0100764 0.0127959 0)
(-0.0137432 0.014921 0)
(-0.0178198 0.0167585 0)
(-0.0222339 0.0182702 0)
(-0.0269097 0.0194331 0)
(-0.0317688 0.0202365 0)
(-0.0367325 0.0206789 0)
(-0.0417224 0.0207662 0)
(-0.0466622 0.0205102 0)
(-0.0514784 0.0199268 0)
(-0.0561012 0.0190359 0)
(-0.0604652 0.0178594 0)
(-0.0645099 0.0164216 0)
(-0.0681803 0.0147484 0)
(-0.0714272 0.0128668 0)
(-0.0742074 0.0108051 0)
(-0.0764842 0.00859242 0)
(-0.0782273 0.00625869 0)
(-0.0794132 0.00383474 0)
(-0.0800254 0.00135217 0)
(-0.000129721 0.00121011 0)
(-0.000882985 0.00412091 0)
(-0.0025309 0.00727129 0)
(-0.00491823 0.0104685 0)
(-0.00795362 0.0135663 0)
(-0.0115746 0.0164504 0)
(-0.0157095 0.0190345 0)
(-0.0202799 0.0212563 0)
(-0.0252039 0.0230739 0)
(-0.0303976 0.024462 0)
(-0.0357755 0.0254086 0)
(-0.0412521 0.0259125 0)
(-0.0467435 0.0259812 0)
(-0.0521679 0.0256289 0)
(-0.0574468 0.0248752 0)
(-0.062506 0.023744 0)
(-0.0672759 0.0222622 0)
(-0.0716925 0.0204596 0)
(-0.0756974 0.0183677 0)
(-0.0792383 0.0160197 0)
(-0.0822696 0.0134504 0)
(-0.0847523 0.0106954 0)
(-0.0866543 0.00779161 0)
(-0.0879505 0.00477692 0)
(-0.0886234 0.00169014 0)
(-0.000149597 0.00168905 0)
(-0.00101076 0.0054752 0)
(-0.00288444 0.00942526 0)
(-0.00558333 0.0133482 0)
(-0.00899492 0.0170964 0)
(-0.0130423 0.0205524 0)
(-0.0176408 0.0236264 0)
(-0.0227002 0.026253 0)
(-0.0281288 0.0283881 0)
(-0.0338338 0.0300049 0)
(-0.0397224 0.0310914 0)
(-0.0457026 0.0316473 0)
(-0.0516843 0.0316823 0)
(-0.0575809 0.0312137 0)
(-0.0633092 0.0302652 0)
(-0.0687909 0.0288652 0)
(-0.0739529 0.0270461 0)
(-0.0787279 0.0248433 0)
(-0.0830547 0.0222944 0)
(-0.0868785 0.0194393 0)
(-0.0901517 0.0163193 0)
(-0.0928332 0.0129772 0)
(-0.0948895 0.00945703 0)
(-0.0962942 0.00580405 0)
(-0.0970288 0.00206464 0)
(-0.000168469 0.00223149 0)
(-0.00113386 0.00700302 0)
(-0.00322754 0.0118448 0)
(-0.00623203 0.0165681 0)
(-0.0100145 0.0210251 0)
(-0.0144839 0.025097 0)
(-0.019542 0.0286924 0)
(-0.0250867 0.0317444 0)
(-0.0310158 0.0342078 0)
(-0.0372276 0.0360559 0)
(-0.0436212 0.0372776 0)
(-0.050098 0.0378747 0)
(-0.0565623 0.0378597 0)
(-0.062922 0.037254 0)
(-0.0690899 0.0360855 0)
(-0.0749839 0.0343879 0)
(-0.0805276 0.0321995 0)
(-0.085651 0.0295616 0)
(-0.0902904 0.0265185 0)
(-0.094389 0.0231169 0)
(-0.0978974 0.0194052 0)
(-0.100773 0.0154333 0)
(-0.102981 0.0112528 0)
(-0.104494 0.00691647 0)
(-0.105292 0.00247854 0)
(-0.000186664 0.0028353 0)
(-0.00125367 0.00869992 0)
(-0.00356305 0.0145247 0)
(-0.00686862 0.0201232 0)
(-0.011018 0.0253481 0)
(-0.0159058 0.0300807 0)
(-0.0214206 0.0342292 0)
(-0.0274479 0.0377269 0)
(-0.0338747 0.0405292 0)
(-0.0405898 0.0426105 0)
(-0.0474844 0.043962 0)
(-0.0544528 0.0445885 0)
(-0.0613935 0.0445065 0)
(-0.0682096 0.0437416 0)
(-0.0748095 0.0423273 0)
(-0.0811077 0.0403032 0)
(-0.087025 0.0377134 0)
(-0.0924889 0.0346062 0)
(-0.0974336 0.0310327 0)
(-0.101801 0.0270465 0)
(-0.10554 0.0227035 0)
(-0.108606 0.018061 0)
(-0.110965 0.0131782 0)
(-0.112587 0.00811564 0)
(-0.113452 0.00293551 0)
(-0.000204466 0.00349907 0)
(-0.00137149 0.0105629 0)
(-0.00389391 0.0174614 0)
(-0.00749771 0.0240098 0)
(-0.0120113 0.0300621 0)
(-0.0173155 0.0355006 0)
(-0.0232852 0.0402346 0)
(-0.0297934 0.0441985 0)
(-0.0367158 0.0473498 0)
(-0.0439318 0.0496657 0)
(-0.0513241 0.0511408 0)
(-0.0587801 0.051784 0)
(-0.0661922 0.0516167 0)
(-0.0734587 0.0506701 0)
(-0.0804841 0.0489838 0)
(-0.0871796 0.0466036 0)
(-0.0934633 0.0435807 0)
(-0.0992608 0.0399703 0)
(-0.104505 0.0358308 0)
(-0.109135 0.0312232 0)
(-0.1131 0.0262107 0)
(-0.116356 0.0208585 0)
(-0.118864 0.0152334 0)
(-0.120597 0.00940384 0)
(-0.121532 0.00343988 0)
(-0.000222122 0.00422211 0)
(-0.00148854 0.0125904 0)
(-0.00422295 0.0206529 0)
(-0.0081239 0.0282262 0)
(-0.0130009 0.0351658 0)
(-0.0187208 0.0413556 0)
(-0.0251447 0.0467071 0)
(-0.0321328 0.0511576 0)
(-0.0395497 0.0546678 0)
(-0.0472645 0.0572189 0)
(-0.0551516 0.0588104 0)
(-0.0630912 0.0594568 0)
(-0.0709697 0.0591852 0)
(-0.0786808 0.0580336 0)
(-0.086125 0.0560484 0)
(-0.0932107 0.0532826 0)
(-0.0998537 0.0497947 0)
(-0.105978 0.0456476 0)
(-0.111515 0.0409073 0)
(-0.116403 0.0356425 0)
(-0.120591 0.029924 0)
(-0.124033 0.0238248 0)
(-0.126691 0.0174193 0)
(-0.128536 0.0107838 0)
(-0.129545 0.00399647 0)
(-0.000239841 0.00500431 0)
(-0.00160589 0.0147821 0)
(-0.00455277 0.0240989 0)
(-0.00875154 0.0327722 0)
(-0.0139928 0.040659 0)
(-0.020129 0.0476456 0)
(-0.0270075 0.0536467 0)
(-0.0344755 0.0586035 0)
(-0.0423858 0.0624816 0)
(-0.0505975 0.0652678 0)
(-0.0589762 0.0669676 0)
(-0.0673948 0.0676023 0)
(-0.0757342 0.0672064 0)
(-0.083883 0.0658256 0)
(-0.0917384 0.0635138 0)
(-0.0992061 0.0603325 0)
(-0.1062 0.056348 0)
(-0.112643 0.0516313 0)
(-0.118465 0.0462563 0)
(-0.123606 0.0402997 0)
(-0.128011 0.0338402 0)
(-0.131637 0.0269584 0)
(-0.134444 0.0197365 0)
(-0.136403 0.0122586 0)
(-0.137491 0.00461047 0)
(-0.000257805 0.00584611 0)
(-0.00172454 0.017139 0)
(-0.00488577 0.027801 0)
(-0.00938465 0.0376494 0)
(-0.0149924 0.0465432 0)
(-0.021547 0.0543718 0)
(-0.0288815 0.0610538 0)
(-0.0368298 0.0665359 0)
(-0.0452325 0.0707898 0)
(-0.0539386 0.0738094 0)
(-0.0628048 0.0756079 0)
(-0.0716968 0.0762149 0)
(-0.0804897 0.0756735 0)
(-0.0890676 0.074038 0)
(-0.0973247 0.0713716 0)
(-0.105164 0.0677444 0)
(-0.112499 0.0632317 0)
(-0.11925 0.0579128 0)
(-0.125349 0.0518703 0)
(-0.130733 0.0451888 0)
(-0.13535 0.037955 0)
(-0.139155 0.0302572 0)
(-0.14211 0.0221853 0)
(-0.144184 0.0138309 0)
(-0.145354 0.0052872 0)
(-0.000276174 0.00674841 0)
(-0.00184535 0.0196634 0)
(-0.00522413 0.0317618 0)
(-0.0100269 0.0428609 0)
(-0.0160049 0.0528214 0)
(-0.0229811 0.0615363 0)
(-0.0307737 0.0689296 0)
(-0.0392027 0.0749545 0)
(-0.0480966 0.0795905 0)
(-0.0572937 0.0828401 0)
(-0.0666418 0.0847259 0)
(-0.0759995 0.0852872 0)
(-0.0852361 0.0845773 0)
(-0.0942319 0.0826607 0)
(-0.102878 0.0796105 0)
(-0.111076 0.0755067 0)
(-0.118737 0.0704341 0)
(-0.125784 0.0644813 0)
(-0.132147 0.0577395 0)
(-0.137765 0.0503016 0)
(-0.142585 0.0422624 0)
(-0.146563 0.0337178 0)
(-0.149662 0.024765 0)
(-0.151851 0.0155028 0)
(-0.153107 0.00603196 0)
(-0.000295093 0.00771257 0)
(-0.00196913 0.0223582 0)
(-0.00556987 0.0359855 0)
(-0.0106817 0.048411 0)
(-0.017035 0.0594974 0)
(-0.0244368 0.0691422 0)
(-0.03269 0.0772756 0)
(-0.0416002 0.0838589 0)
(-0.0509832 0.0888809 0)
(-0.0606663 0.0923547 0)
(-0.0704885 0.0943138 0)
(-0.0803014 0.0948093 0)
(-0.0899688 0.0939059 0)
(-0.0993673 0.0916799 0)
(-0.108386 0.0882157 0)
(-0.116925 0.083604 0)
(-0.124895 0.0779401 0)
(-0.13222 0.0713222 0)
(-0.138831 0.0638507 0)
(-0.144667 0.055627 0)
(-0.149679 0.0467538 0)
(-0.153822 0.0373344 0)
(-0.15706 0.0274731 0)
(-0.159362 0.0172758 0)
(-0.160706 0.0068497 0)
(-0.000314696 0.00874033 0)
(-0.00209664 0.0252277 0)
(-0.0059249 0.0404777 0)
(-0.0113523 0.0543056 0)
(-0.018087 0.0665765 0)
(-0.0259194 0.0771931 0)
(-0.0346359 0.0860932 0)
(-0.044027 0.0932477 0)
(-0.0538955 0.0986567 0)
(-0.0640576 0.102346 0)
(-0.0743432 0.104361 0)
(-0.084597 0.104767 0)
(-0.0946779 0.103643 0)
(-0.104459 0.101078 0)
(-0.113828 0.0971677 0)
(-0.122685 0.0920163 0)
(-0.130942 0.0857298 0)
(-0.138523 0.0784166 0)
(-0.14536 0.0701867 0)
(-0.151396 0.06115 0)
(-0.156583 0.0514171 0)
(-0.160879 0.0410985 0)
(-0.164247 0.0303054 0)
(-0.16666 0.0191497 0)
(-0.168094 0.00774481 0)
(-0.000335117 0.00983383 0)
(-0.00222865 0.0282768 0)
(-0.00629109 0.0452448 0)
(-0.0120418 0.0605514 0)
(-0.0191651 0.0740646 0)
(-0.0274334 0.0856929 0)
(-0.0366157 0.0953835 0)
(-0.0464867 0.103119 0)
(-0.0568353 0.108912 0)
(-0.0674663 0.112802 0)
(-0.0782008 0.114853 0)
(-0.0888766 0.115144 0)
(-0.0993483 0.113768 0)
(-0.109487 0.11083 0)
(-0.119179 0.106442 0)
(-0.128324 0.100718 0)
(-0.136838 0.0937773 0)
(-0.144645 0.0857398 0)
(-0.151681 0.0767247 0)
(-0.157893 0.0668507 0)
(-0.163235 0.0562362 0)
(-0.167666 0.0449983 0)
(-0.171154 0.0332545 0)
(-0.17367 0.0211223 0)
(-0.175193 0.00872066 0)
(-0.000356497 0.0109956 0)
(-0.00236592 0.0315117 0)
(-0.00667038 0.0502947 0)
(-0.0127534 0.0671565 0)
(-0.0202734 0.0819682 0)
(-0.0289834 0.0946457 0)
(-0.0386337 0.105147 0)
(-0.0489818 0.113467 0)
(-0.0598024 0.119636 0)
(-0.0708887 0.123711 0)
(-0.0820526 0.125771 0)
(-0.0931259 0.125915 0)
(-0.103959 0.124254 0)
(-0.114422 0.120908 0)
(-0.124401 0.116005 0)
(-0.133798 0.109675 0)
(-0.142531 0.10205 0)
(-0.150527 0.0932603 0)
(-0.157729 0.0834356 0)
(-0.164086 0.0727035 0)
(-0.169554 0.0611895 0)
(-0.174099 0.0490173 0)
(-0.17769 0.0363098 0)
(-0.180301 0.0231894 0)
(-0.181911 0.00977928 0)
(-0.000378993 0.0122285 0)
(-0.00250934 0.0349392 0)
(-0.00706492 0.0556364 0)
(-0.0134904 0.07413 0)
(-0.0214164 0.0902948 0)
(-0.030574 0.104055 0)
(-0.0406935 0.115382 0)
(-0.0515141 0.124287 0)
(-0.0627954 0.130819 0)
(-0.0743185 0.135053 0)
(-0.0858867 0.137091 0)
(-0.0973259 0.137051 0)
(-0.108484 0.135064 0)
(-0.11923 0.131272 0)
(-0.129451 0.125817 0)
(-0.139053 0.118847 0)
(-0.147958 0.110506 0)
(-0.156099 0.100938 0)
(-0.163423 0.0902827 0)
(-0.169884 0.0786755 0)
(-0.175446 0.0662495 0)
(-0.180076 0.053134 0)
(-0.183749 0.0394565 0)
(-0.186441 0.0253433 0)
(-0.188133 0.0109208 0)
(-0.000402788 0.0135361 0)
(-0.00265992 0.0385674 0)
(-0.00747718 0.0612804 0)
(-0.014257 0.0814821 0)
(-0.0225989 0.0990521 0)
(-0.0322103 0.113925 0)
(-0.0427991 0.126087 0)
(-0.0540849 0.135569 0)
(-0.0658113 0.142441 0)
(-0.0777472 0.146803 0)
(-0.0896872 0.148779 0)
(-0.101452 0.148512 0)
(-0.112888 0.146157 0)
(-0.123865 0.141875 0)
(-0.134274 0.135828 0)
(-0.144024 0.128182 0)
(-0.153044 0.119096 0)
(-0.161274 0.108725 0)
(-0.168667 0.0972205 0)
(-0.175185 0.0847262 0)
(-0.180797 0.0713814 0)
(-0.185478 0.0573206 0)
(-0.189205 0.0426747 0)
(-0.19196 0.0275727 0)
(-0.193724 0.0121432 0)
(-0.000428109 0.0149223 0)
(-0.0028189 0.0424058 0)
(-0.00791012 0.0672385 0)
(-0.0150578 0.0892244 0)
(-0.0238268 0.108248 0)
(-0.033898 0.124258 0)
(-0.0449546 0.137257 0)
(-0.056695 0.1473 0)
(-0.0688458 0.154481 0)
(-0.0811633 0.158929 0)
(-0.0934341 0.160796 0)
(-0.105475 0.160252 0)
(-0.117132 0.157477 0)
(-0.128276 0.152657 0)
(-0.138804 0.145976 0)
(-0.148633 0.137617 0)
(-0.157698 0.127756 0)
(-0.165949 0.116561 0)
(-0.173347 0.104193 0)
(-0.179864 0.0908056 0)
(-0.185475 0.0765424 0)
(-0.190163 0.0615423 0)
(-0.193911 0.0459388 0)
(-0.196705 0.0298621 0)
(-0.198529 0.0134411 0)
(-0.000455243 0.0163917 0)
(-0.00298781 0.0464655 0)
(-0.00836746 0.0735248 0)
(-0.0158986 0.0973699 0)
(-0.0251072 0.117893 0)
(-0.0356441 0.135056 0)
(-0.047165 0.148885 0)
(-0.0593452 0.159461 0)
(-0.0718932 0.166909 0)
(-0.0845527 0.171391 0)
(-0.0971029 0.173091 0)
(-0.109358 0.17221 0)
(-0.121164 0.168958 0)
(-0.132399 0.163547 0)
(-0.142965 0.156185 0)
(-0.152789 0.147076 0)
(-0.161816 0.136411 0)
(-0.170007 0.124374 0)
(-0.177334 0.111135 0)
(-0.183778 0.0968533 0)
(-0.189326 0.0816802 0)
(-0.193968 0.0657564 0)
(-0.197695 0.0492166 0)
(-0.200498 0.0321906 0)
(-0.202365 0.0148061 0)
(-0.000484556 0.0179501 0)
(-0.00316864 0.0507596 0)
(-0.00885386 0.0801553 0)
(-0.0167867 0.105934 0)
(-0.026449 0.127995 0)
(-0.0374572 0.146319 0)
(-0.0494363 0.160959 0)
(-0.0620362 0.172028 0)
(-0.0749463 0.179689 0)
(-0.0878979 0.184138 0)
(-0.100664 0.185601 0)
(-0.113056 0.184313 0)
(-0.124927 0.180518 0)
(-0.136158 0.174457 0)
(-0.146664 0.166366 0)
(-0.156383 0.156468 0)
(-0.165273 0.144973 0)
(-0.173308 0.132078 0)
(-0.180474 0.117964 0)
(-0.186763 0.102798 0)
(-0.192175 0.0867324 0)
(-0.196709 0.0699114 0)
(-0.200365 0.0524686 0)
(-0.20314 0.0345318 0)
(-0.205027 0.0162251 0)
(-0.000516528 0.0196041 0)
(-0.00336391 0.0553037 0)
(-0.00937534 0.0871495 0)
(-0.0177314 0.114933 0)
(-0.0278634 0.138564 0)
(-0.039348 0.158046 0)
(-0.0517759 0.173464 0)
(-0.0647688 0.184971 0)
(-0.0779963 0.192771 0)
(-0.0911774 0.197108 0)
(-0.10408 0.198249 0)
(-0.116518 0.196472 0)
(-0.128348 0.192059 0)
(-0.139465 0.185284 0)
(-0.149794 0.17641 0)
(-0.159291 0.165684 0)
(-0.167927 0.153336 0)
(-0.175695 0.139574 0)
(-0.182593 0.124589 0)
(-0.188632 0.108554 0)
(-0.193822 0.0916257 0)
(-0.198175 0.0739462 0)
(-0.2017 0.0556472 0)
(-0.204403 0.0368524 0)
(-0.206282 0.0176807 0)
(-0.000551787 0.0213619 0)
(-0.00357692 0.0601168 0)
(-0.00993959 0.0945304 0)
(-0.0187447 0.124388 0)
(-0.0293645 0.149612 0)
(-0.0413301 0.170235 0)
(-0.0541927 0.18638 0)
(-0.0675436 0.198249 0)
(-0.0810316 0.206097 0)
(-0.0943644 0.210222 0)
(-0.107307 0.210941 0)
(-0.119677 0.20858 0)
(-0.131343 0.203464 0)
(-0.142212 0.195903 0)
(-0.152229 0.186191 0)
(-0.161364 0.1746 0)
(-0.169613 0.161376 0)
(-0.176983 0.146744 0)
(-0.183494 0.130901 0)
(-0.189171 0.114026 0)
(-0.194041 0.0962749 0)
(-0.198129 0.0777893 0)
(-0.201455 0.0586962 0)
(-0.204033 0.0391127 0)
(-0.205868 0.0191499 0)
(-0.000591162 0.0232336 0)
(-0.00381197 0.0652224 0)
(-0.0105566 0.102326 0)
(-0.0198417 0.134322 0)
(-0.0309702 0.161151 0)
(-0.0434199 0.182878 0)
(-0.0566974 0.199679 0)
(-0.0703607 0.21181 0)
(-0.0840372 0.219592 0)
(-0.0974248 0.223383 0)
(-0.110289 0.223561 0)
(-0.122456 0.220507 0)
(-0.133809 0.214593 0)
(-0.144274 0.206169 0)
(-0.153817 0.195561 0)
(-0.162433 0.183067 0)
(-0.170137 0.168953 0)
(-0.176963 0.153454 0)
(-0.182949 0.136777 0)
(-0.188139 0.119101 0)
(-0.192578 0.100583 0)
(-0.196305 0.0813592 0)
(-0.199353 0.0615505 0)
(-0.201746 0.0412651 0)
(-0.203496 0.0206038 0)
(-0.000635753 0.0252321 0)
(-0.00407466 0.0706493 0)
(-0.0112392 0.11057 0)
(-0.0210417 0.144763 0)
(-0.0327028 0.173192 0)
(-0.0456375 0.195966 0)
(-0.0593021 0.213322 0)
(-0.073218 0.225589 0)
(-0.0869919 0.233161 0)
(-0.100315 0.236473 0)
(-0.112956 0.235971 0)
(-0.124758 0.232099 0)
(-0.135621 0.22528 0)
(-0.145498 0.21591 0)
(-0.154382 0.204349 0)
(-0.162295 0.190919 0)
(-0.16928 0.175905 0)
(-0.175394 0.159554 0)
(-0.180701 0.142077 0)
(-0.185265 0.123654 0)
(-0.18915 0.10444 0)
(-0.19241 0.0845638 0)
(-0.195093 0.0641363 0)
(-0.197232 0.0432551 0)
(-0.198849 0.0220079 0)
(-0.000687022 0.0273732 0)
(-0.00437235 0.0764335 0)
(-0.012004 0.119304 0)
(-0.0223693 0.155745 0)
(-0.0345898 0.185748 0)
(-0.0480071 0.209483 0)
(-0.0620196 0.22726 0)
(-0.0761101 0.2395 0)
(-0.0898658 0.246688 0)
(-0.102975 0.249346 0)
(-0.115219 0.248003 0)
(-0.126459 0.243171 0)
(-0.136625 0.235332 0)
(-0.145702 0.224929 0)
(-0.153714 0.212357 0)
(-0.160716 0.197964 0)
(-0.166783 0.182051 0)
(-0.172001 0.164874 0)
(-0.176459 0.146647 0)
(-0.180244 0.127549 0)
(-0.18344 0.107727 0)
(-0.186118 0.0873014 0)
(-0.188339 0.0663715 0)
(-0.190149 0.0450207 0)
(-0.191579 0.0233213 0)
(-0.000746935 0.0296773 0)
(-0.00471473 0.0826204 0)
(-0.0128726 0.12858 0)
(-0.0238554 0.167307 0)
(-0.0366653 0.198832 0)
(-0.0505562 0.223402 0)
(-0.0648617 0.241426 0)
(-0.0790243 0.253435 0)
(-0.0926152 0.260025 0)
(-0.105327 0.261825 0)
(-0.116959 0.259454 0)
(-0.127406 0.253504 0)
(-0.136632 0.244521 0)
(-0.144661 0.232997 0)
(-0.151559 0.219361 0)
(-0.157419 0.203987 0)
(-0.16235 0.187189 0)
(-0.166469 0.169228 0)
(-0.169893 0.150319 0)
(-0.172736 0.130635 0)
(-0.175098 0.110313 0)
(-0.177071 0.0894623 0)
(-0.178728 0.068167 0)
(-0.180129 0.046494 0)
(-0.18131 0.0244976 0)
(-0.000818156 0.0321707 0)
(-0.00511462 0.0892672 0)
(-0.0138727 0.138461 0)
(-0.0255394 0.179493 0)
(-0.0389701 0.212452 0)
(-0.0533153 0.237685 0)
(-0.0678362 0.255729 0)
(-0.0819356 0.267253 0)
(-0.0951746 0.272989 0)
(-0.10726 0.273689 0)
(-0.118023 0.27008 0)
(-0.127399 0.262841 0)
(-0.135402 0.252585 0)
(-0.142103 0.239854 0)
(-0.147616 0.225112 0)
(-0.152076 0.208752 0)
(-0.155632 0.191099 0)
(-0.158436 0.172416 0)
(-0.160633 0.152912 0)
(-0.162359 0.132753 0)
(-0.163739 0.112061 0)
(-0.164879 0.0909308 0)
(-0.165867 0.0694284 0)
(-0.166772 0.047602 0)
(-0.167643 0.0254856 0)
(-0.000904339 0.0348872 0)
(-0.00558917 0.0964468 0)
(-0.0150407 0.149024 0)
(-0.0274702 0.192356 0)
(-0.0415524 0.226612 0)
(-0.0563155 0.252274 0)
(-0.070942 0.270047 0)
(-0.0847982 0.280772 0)
(-0.0974463 0.285348 0)
(-0.108622 0.284671 0)
(-0.118204 0.27959 0)
(-0.126184 0.270879 0)
(-0.132636 0.259222 0)
(-0.137692 0.245208 0)
(-0.141519 0.229332 0)
(-0.144301 0.212001 0)
(-0.146229 0.193546 0)
(-0.14749 0.174226 0)
(-0.148258 0.154241 0)
(-0.148694 0.13374 0)
(-0.148941 0.112831 0)
(-0.149119 0.0915889 0)
(-0.149332 0.0700594 0)
(-0.149657 0.0482694 0)
(-0.150151 0.0262308 0)
(-0.00101059 0.0378711 0)
(-0.0061615 0.104252 0)
(-0.0164239 0.160366 0)
(-0.0297091 0.205953 0)
(-0.0444674 0.241303 0)
(-0.0595844 0.267082 0)
(-0.0741596 0.284213 0)
(-0.0875324 0.293755 0)
(-0.0992834 0.29681 0)
(-0.109198 0.294443 0)
(-0.117223 0.287638 0)
(-0.123425 0.277269 0)
(-0.127954 0.26409 0)
(-0.131012 0.248733 0)
(-0.132826 0.231718 0)
(-0.133635 0.21346 0)
(-0.133673 0.194286 0)
(-0.13316 0.174443 0)
(-0.1323 0.154115 0)
(-0.131274 0.133434 0)
(-0.130242 0.112485 0)
(-0.129338 0.0913211 0)
(-0.128674 0.0699653 0)
(-0.128338 0.0484214 0)
(-0.128393 0.0266776 0)
(-0.00114416 0.0411812 0)
(-0.00686327 0.112803 0)
(-0.0180842 0.172603 0)
(-0.0323313 0.220345 0)
(-0.0477755 0.256493 0)
(-0.0631378 0.281974 0)
(-0.0774372 0.297995 0)
(-0.0900045 0.305893 0)
(-0.100466 0.307009 0)
(-0.108685 0.302605 0)
(-0.114703 0.293812 0)
(-0.118686 0.281606 0)
(-0.120873 0.266805 0)
(-0.121548 0.250076 0)
(-0.121005 0.231952 0)
(-0.119537 0.212845 0)
(-0.117422 0.193069 0)
(-0.114912 0.172851 0)
(-0.112234 0.152354 0)
(-0.109589 0.131681 0)
(-0.107147 0.110894 0)
(-0.105052 0.0900206 0)
(-0.103423 0.0690588 0)
(-0.102353 0.0479879 0)
(-0.101911 0.026772 0)
(-0.00131569 0.0448958 0)
(-0.00773851 0.122253 0)
(-0.0201033 0.185874 0)
(-0.0354283 0.235585 0)
(-0.051536 0.272116 0)
(-0.0669646 0.296751 0)
(-0.0806662 0.311077 0)
(-0.0919956 0.316778 0)
(-0.100664 0.315484 0)
(-0.106655 0.308674 0)
(-0.110137 0.297632 0)
(-0.111397 0.283433 0)
(-0.110782 0.266946 0)
(-0.108664 0.24886 0)
(-0.105411 0.229704 0)
(-0.101368 0.209874 0)
(-0.0968504 0.189658 0)
(-0.0921398 0.169253 0)
(-0.0874806 0.148791 0)
(-0.0830831 0.128346 0)
(-0.0791249 0.107948 0)
(-0.0757539 0.087597 0)
(-0.0730904 0.0672659 0)
(-0.0712295 0.0469088 0)
(-0.0702424 0.0264657 0)
(-0.00154122 0.0491215 0)
(-0.00884972 0.132801 0)
(-0.0225891 0.200344 0)
(-0.0391073 0.251711 0)
(-0.0557956 0.288036 0)
(-0.0710011 0.31111 0)
(-0.0836433 0.323021 0)
(-0.0931554 0.325882 0)
(-0.0993932 0.321659 0)
(-0.102508 0.312068 0)
(-0.102837 0.298544 0)
(-0.100811 0.282242 0)
(-0.0969035 0.264065 0)
(-0.0915782 0.2447 0)
(-0.085272 0.224651 0)
(-0.0783787 0.204282 0)
(-0.0712446 0.183839 0)
(-0.064168 0.16348 0)
(-0.0574024 0.143296 0)
(-0.05116 0.123325 0)
(-0.0456172 0.103565 0)
(-0.0409182 0.0839861 0)
(-0.0371797 0.0645345 0)
(-0.034494 0.0451401 0)
(-0.0329309 0.0257202 0)
(-0.00184593 0.0540063 0)
(-0.0102876 0.144708 0)
(-0.0256841 0.2162 0)
(-0.0434866 0.268716 0)
(-0.0605624 0.304014 0)
(-0.0750844 0.324602 0)
(-0.0860084 0.333221 0)
(-0.092932 0.332514 0)
(-0.0959357 0.324823 0)
(-0.095403 0.312104 0)
(-0.0918782 0.295924 0)
(-0.0859656 0.27749 0)
(-0.0782653 0.257705 0)
(-0.0693351 0.237223 0)
(-0.0596715 0.2165 0)
(-0.0497038 0.195844 0)
(-0.0397952 0.175445 0)
(-0.0302482 0.15541 0)
(-0.0213118 0.135783 0)
(-0.0131893 0.11656 0)
(-0.00604536 0.0977063 0)
(-1.27472e-05 0.07916 0)
(0.00480243 0.0608422 0)
(0.00831624 0.0426606 0)
(0.0104639 0.0245124 0)
(-0.00227095 0.0597603 0)
(-0.0121868 0.15831 0)
(-0.0295739 0.233635 0)
(-0.0486787 0.286499 0)
(-0.0657562 0.319633 0)
(-0.0788732 0.336553 0)
(-0.0871471 0.340849 0)
(-0.0904689 0.335787 0)
(-0.0892484 0.32411 0)
(-0.0841727 0.307993 0)
(-0.0760336 0.289093 0)
(-0.0656199 0.268618 0)
(-0.053658 0.247427 0)
(-0.0407836 0.2261 0)
(-0.0275343 0.205016 0)
(-0.0143541 0.184403 0)
(-0.00160295 0.164382 0)
(0.010431 0.144996 0)
(0.0215191 0.126237 0)
(0.0314808 0.108058 0)
(0.0401741 0.0903891 0)
(0.0474871 0.0731392 0)
(0.0533316 0.0562065 0)
(0.0576375 0.0394796 0)
(0.0603498 0.0228398 0)
(-0.00288626 0.0666911 0)
(-0.014751 0.174042 0)
(-0.0344926 0.252813 0)
(-0.0547468 0.304781 0)
(-0.0711108 0.334195 0)
(-0.0817115 0.345976 0)
(-0.0860378 0.344784 0)
(-0.0844553 0.334583 0)
(-0.0778291 0.318499 0)
(-0.0672193 0.298867 0)
(-0.0536897 0.277354 0)
(-0.0382082 0.255102 0)
(-0.0216045 0.23286 0)
(-0.00456168 0.211093 0)
(0.0123738 0.190067 0)
(0.028774 0.169911 0)
(0.0443089 0.150659 0)
(0.0587273 0.132288 0)
(0.0718395 0.114734 0)
(0.0835029 0.0979062 0)
(0.0936098 0.0817012 0)
(0.102079 0.0660039 0)
(0.108846 0.0506933 0)
(0.113862 0.0356437 0)
(0.117084 0.0207259 0)
(-0.00381469 0.0752638 0)
(-0.0182915 0.192455 0)
(-0.040708 0.273785 0)
(-0.0615996 0.322953 0)
(-0.0759886 0.346559 0)
(-0.0823985 0.351442 0)
(-0.0810172 0.343541 0)
(-0.0729171 0.327532 0)
(-0.0595485 0.306837 0)
(-0.0423899 0.283826 0)
(-0.0227683 0.260062 0)
(-0.00179183 0.23652 0)
(0.0196576 0.213772 0)
(0.0409013 0.192117 0)
(0.0614313 0.171678 0)
(0.0808752 0.152468 0)
(0.0989658 0.134429 0)
(0.115514 0.117466 0)
(0.130389 0.101463 0)
(0.143501 0.08629 0)
(0.154788 0.0718153 0)
(0.164206 0.057905 0)
(0.171723 0.0444254 0)
(0.177313 0.0312431 0)
(0.180953 0.0182246 0)
(-0.00527557 0.0862071 0)
(-0.0232758 0.214198 0)
(-0.0484469 0.296299 0)
(-0.0687538 0.339808 0)
(-0.0790322 0.354906 0)
(-0.0788095 0.35093 0)
(-0.0694329 0.335222 0)
(-0.0529381 0.313048 0)
(-0.0314504 0.287924 0)
(-0.00685152 0.262054 0)
(0.0193382 0.236735 0)
(0.0459594 0.212664 0)
(0.0721638 0.19016 0)
(0.0973527 0.169317 0)
(0.121117 0.150093 0)
(0.143187 0.132377 0)
(0.163393 0.116022 0)
(0.181634 0.100867 0)
(0.197856 0.0867493 0)
(0.212032 0.0735107 0)
(0.224155 0.0609995 0)
(0.234227 0.0490713 0)
(0.24225 0.0375878 0)
(0.248225 0.0264156 0)
(0.252148 0.0154236 0)
(-0.00765503 0.100685 0)
(-0.0303603 0.239914 0)
(-0.0576478 0.319411 0)
(-0.0748166 0.35311 0)
(-0.0775279 0.356432 0)
(-0.0672884 0.341706 0)
(-0.0471551 0.317547 0)
(-0.0203178 0.28946 0)
(0.0104521 0.260693 0)
(0.043003 0.233002 0)
(0.0757832 0.207231 0)
(0.107732 0.183684 0)
(0.138158 0.162375 0)
(0.166638 0.143164 0)
(0.192929 0.125846 0)
(0.216911 0.110195 0)
(0.238543 0.0959855 0)
(0.257833 0.083008 0)
(0.274813 0.0710691 0)
(0.289531 0.0599937 0)
(0.302037 0.0496234 0)
(0.312378 0.0398133 0)
(0.320592 0.0304296 0)
(0.326708 0.0213468 0)
(0.330743 0.0124442 0)
(-0.0115743 0.120527 0)
(-0.0402561 0.26985 0)
(-0.0672518 0.340735 0)
(-0.0763906 0.358967 0)
(-0.0662845 0.347057 0)
(-0.0417357 0.320344 0)
(-0.00795312 0.288088 0)
(0.0307796 0.255337 0)
(0.0713182 0.224545 0)
(0.111555 0.196694 0)
(0.150179 0.171994 0)
(0.186439 0.150286 0)
(0.21995 0.131257 0)
(0.250558 0.114552 0)
(0.27825 0.0998271 0)
(0.303092 0.0867697 0)
(0.32519 0.0751069 0)
(0.344668 0.0646032 0)
(0.361649 0.0550561 0)
(0.376253 0.0462911 0)
(0.388582 0.0381568 0)
(0.398725 0.0305195 0)
(0.406755 0.0232596 0)
(0.412724 0.0162671 0)
(0.416664 0.00943832 0)
(-0.0177483 0.148556 0)
(-0.0528828 0.302815 0)
(-0.0733042 0.355064 0)
(-0.065863 0.351031 0)
(-0.0357947 0.321336 0)
(0.00761216 0.283129 0)
(0.057145 0.244875 0)
(0.108037 0.210114 0)
(0.15742 0.179895 0)
(0.203753 0.154146 0)
(0.246334 0.132364 0)
(0.28495 0.113936 0)
(0.319657 0.098279 0)
(0.350644 0.0848851 0)
(0.378158 0.073331 0)
(0.40246 0.0632708 0)
(0.423799 0.0544234 0)
(0.442405 0.0465601 0)
(0.45848 0.0394938 0)
(0.472198 0.0330694 0)
(0.483707 0.0271569 0)
(0.493126 0.0216448 0)
(0.500551 0.0164354 0)
(0.506051 0.0114411 0)
(0.509672 0.00658058 0)
(-0.02588 0.189377 0)
(-0.0643831 0.333679 0)
(-0.0643978 0.351757 0)
(-0.0272805 0.319462 0)
(0.0304477 0.272777 0)
(0.0954752 0.226997 0)
(0.160177 0.187446 0)
(0.220751 0.154975 0)
(0.275656 0.128811 0)
(0.324562 0.107792 0)
(0.367721 0.0908206 0)
(0.405623 0.0769891 0)
(0.43882 0.0655869 0)
(0.467844 0.0560705 0)
(0.493176 0.0480269 0)
(0.515234 0.0411413 0)
(0.534374 0.0351719 0)
(0.550897 0.0299306 0)
(0.565051 0.0252692 0)
(0.577043 0.0210689 0)
(0.587041 0.0172323 0)
(0.595179 0.0136783 0)
(0.601561 0.0103373 0)
(0.606264 0.00714756 0)
(0.609339 0.0040529 0)
(-0.0296284 0.246728 0)
(-0.0583961 0.346552 0)
(-0.0119537 0.311498 0)
(0.0704013 0.251532 0)
(0.159092 0.196209 0)
(0.242182 0.152086 0)
(0.315607 0.118847 0)
(0.37872 0.0941914 0)
(0.432387 0.0758013 0)
(0.477928 0.0618809 0)
(0.516641 0.0511484 0)
(0.549658 0.0427116 0)
(0.577911 0.035952 0)
(0.602156 0.0304374 0)
(0.622997 0.0258616 0)
(0.640918 0.0220036 0)
(0.656305 0.0187009 0)
(0.66947 0.015832 0)
(0.68066 0.0133035 0)
(0.690078 0.0110427 0)
(0.69788 0.00899121 0)