/*--------------------------------*- C++ -*----------------------------------*\
| =========                 |                                                 |
| \\      /  F ield         | OpenFOAM: The Open Source CFD Toolbox           |
|  \\    /   O peration     | Version:  v2012                                 |
|   \\  /    A nd           | Website:  www.openfoam.com                      |
|    \\/     M anipulation  |                                                 |
\*---------------------------------------------------------------------------*/
FoamFile
{
    version     2.0;
    format      ascii;
    class       volVectorField;
    location    "0.45";
    object      U;
}
// * * * * * * * * * * * * * * * * * * * * * * * * * * * * * * * * * * * * * //

dimensions      [0 1 -1 0 0 0 0];


internalField   nonuniform List<vector> 
2500
(
(3.26608e-05 -3.283e-05 0)
(9.87618e-05 -4.07332e-05 0)
(0.000137325 -2.09868e-05 0)
(0.000106253 7.85397e-06 0)
(-8.73152e-06 3.77386e-05 0)
(-0.000206073 6.53613e-05 0)
(-0.000478429 8.94101e-05 0)
(-0.000815976 0.000109472 0)
(-0.00120777 0.000125522 0)
(-0.00164254 0.000137701 0)
(-0.00210912 0.000146212 0)
(-0.00259671 0.000151287 0)
(-0.00309503 0.000153168 0)
(-0.00359435 0.000152095 0)
(-0.00408562 0.000148308 0)
(-0.00456043 0.000142041 0)
(-0.00501108 0.000133521 0)
(-0.00543057 0.000122974 0)
(-0.00581257 0.000110619 0)
(-0.00615148 9.66742e-05 0)
(-0.00644242 8.13561e-05 0)
(-0.00668122 6.4882e-05 0)
(-0.00686444 4.74718e-05 0)
(-0.00698938 2.93498e-05 0)
(-0.00705411 1.07459e-05 0)
(-0.00705749 -8.10227e-06 0)
(-0.00699918 -2.69491e-05 0)
(-0.00687966 -4.55398e-05 0)
(-0.0067003 -6.36111e-05 0)
(-0.0064633 -8.08909e-05 0)
(-0.00617181 -9.71e-05 0)
(-0.00582984 -0.000111954 0)
(-0.00544236 -0.000125163 0)
(-0.00501523 -0.000136441 0)
(-0.00455521 -0.0001455 0)
(-0.00406994 -0.000152062 0)
(-0.00356787 -0.000155857 0)
(-0.00305824 -0.000156632 0)
(-0.00255096 -0.000154151 0)
(-0.00205655 -0.000148201 0)
(-0.00158596 -0.000138597 0)
(-0.00115048 -0.000125193 0)
(-0.000761464 -0.000107895 0)
(-0.000430037 -8.66993e-05 0)
(-0.000166606 -6.17891e-05 0)
(1.9968e-05 -3.37532e-05 0)
(0.000123748 -4.07398e-06 0)
(0.000144918 2.37945e-05 0)
(9.98296e-05 4.17792e-05 0)
(3.21285e-05 3.2061e-05 0)
(4.1075e-05 -9.92599e-05 0)
(9.39072e-05 -9.30496e-05 0)
(4.5472e-05 1.44703e-05 0)
(-0.000168791 0.00016186 0)
(-0.000575853 0.000318391 0)
(-0.00117706 0.000468049 0)
(-0.00196004 0.000602506 0)
(-0.00290455 0.0007177 0)
(-0.00398589 0.000811889 0)
(-0.00517718 0.000884612 0)
(-0.0064507 0.000936143 0)
(-0.00777894 0.000967194 0)
(-0.00913507 0.000978742 0)
(-0.0104934 0.00097193 0)
(-0.0118298 0.000948 0)
(-0.0131216 0.000908255 0)
(-0.0143477 0.000854039 0)
(-0.0154891 0.000786714 0)
(-0.0165285 0.000707662 0)
(-0.0174506 0.000618277 0)
(-0.0182418 0.000519973 0)
(-0.0188909 0.00041418 0)
(-0.0193883 0.000302356 0)
(-0.0197267 0.000185992 0)
(-0.019901 6.66149e-05 0)
(-0.0199081 -5.42029e-05 0)
(-0.0197473 -0.000174846 0)
(-0.01942 -0.000293651 0)
(-0.0189301 -0.00040891 0)
(-0.0182838 -0.000518879 0)
(-0.0174899 -0.000621784 0)
(-0.0165596 -0.000715833 0)
(-0.0155063 -0.000799238 0)
(-0.0143461 -0.000870229 0)
(-0.0130974 -0.000927086 0)
(-0.0117808 -0.000968162 0)
(-0.010419 -0.000991917 0)
(-0.00903655 -0.000996957 0)
(-0.00765967 -0.000982074 0)
(-0.00631584 -0.000946296 0)
(-0.00503338 -0.000888962 0)
(-0.00384086 -0.000809815 0)
(-0.00276634 -0.000709167 0)
(-0.00183635 -0.00058817 0)
(-0.00107429 -0.000449327 0)
(-0.000498244 -0.000297481 0)
(-0.000117596 -0.000141654 0)
(7.24895e-05 1.65602e-06 0)
(0.000102965 0.000101873 0)
(4.2163e-05 9.9841e-05 0)
(2.24912e-05 -0.00013934 0)
(-1.00584e-05 -4.58162e-05 0)
(-0.00023415 0.000239619 0)
(-0.000706119 0.000609364 0)
(-0.0014518 0.00100298 0)
(-0.00247272 0.00138412 0)
(-0.00375308 0.00173124 0)
(-0.00526578 0.00203222 0)
(-0.00697673 0.00228072 0)
(-0.00884781 0.002474 0)
(-0.010839 0.00261157 0)
(-0.0129097 0.00269443 0)
(-0.01502 0.00272457 0)
(-0.0171313 0.0027046 0)
(-0.0192069 0.00263757 0)
(-0.021212 0.00252682 0)
(-0.0231147 0.00237589 0)
(-0.0248853 0.00218846 0)
(-0.0264972 0.00196831 0)
(-0.0279267 0.00171932 0)
(-0.029153 0.0014454 0)
(-0.0301583 0.00115061 0)
(-0.0309282 0.000839025 0)
(-0.0314513 0.000514869 0)
(-0.0317197 0.000182448 0)
(-0.0317287 -0.000153812 0)
(-0.0314774 -0.000489372 0)
(-0.0309683 -0.000819574 0)
(-0.0302073 -0.00113966 0)
(-0.0292044 -0.00144478 0)
(-0.0279732 -0.00173003 0)
(-0.0265309 -0.0019905 0)
(-0.0248986 -0.00222129 0)
(-0.0231009 -0.00241761 0)
(-0.0211662 -0.00257484 0)
(-0.0191258 -0.00268861 0)
(-0.0170145 -0.0027549 0)
(-0.0148694 -0.00277015 0)
(-0.0127301 -0.00273143 0)
(-0.0106377 -0.00263657 0)
(-0.00863424 -0.00248439 0)
(-0.00676164 -0.00227506 0)
(-0.00506045 -0.00201048 0)
(-0.00356829 -0.00169509 0)
(-0.00231753 -0.00133703 0)
(-0.00133241 -0.000950204 0)
(-0.00062485 -0.000557645 0)
(-0.000188775 -0.000196618 0)
(7.10517e-06 7.28361e-05 0)
(2.53656e-05 0.000146521 0)
(-4.90884e-06 -0.000112334 0)
(-0.000153918 0.000164523 0)
(-0.000600259 0.00071043 0)
(-0.00137371 0.0013803 0)
(-0.00248895 0.002086 0)
(-0.00394337 0.00277014 0)
(-0.00571631 0.0033961 0)
(-0.00777442 0.00394159 0)
(-0.0100761 0.00439386 0)
(-0.0125743 0.00474652 0)
(-0.0152196 0.00499746 0)
(-0.017961 0.00514751 0)
(-0.0207482 0.00519956 0)
(-0.0235319 0.00515787 0)
(-0.026265 0.00502772 0)
(-0.028903 0.00481506 0)
(-0.0314044 0.00452636 0)
(-0.0337309 0.0041684 0)
(-0.0358479 0.00374829 0)
(-0.0377245 0.00327332 0)
(-0.0393336 0.00275097 0)
(-0.0406522 0.00218892 0)
(-0.0416614 0.00159502 0)
(-0.0423464 0.000977312 0)
(-0.0426971 0.000344057 0)
(-0.0427074 -0.000296289 0)
(-0.0423762 -0.000935056 0)
(-0.0417068 -0.00156337 0)
(-0.0407073 -0.00217219 0)
(-0.0393906 -0.00275234 0)
(-0.0377745 -0.00329455 0)
(-0.0358816 -0.00378956 0)
(-0.0337392 -0.00422823 0)
(-0.0313794 -0.00460163 0)
(-0.0288386 -0.00490118 0)
(-0.0261576 -0.00511887 0)
(-0.0233808 -0.00524741 0)
(-0.0205559 -0.00528048 0)
(-0.0177333 -0.00521303 0)
(-0.0149652 -0.00504158 0)
(-0.0123047 -0.00476469 0)
(-0.00980419 -0.00438352 0)
(-0.00751411 -0.00390271 0)
(-0.00548079 -0.00333155 0)
(-0.00374397 -0.0026859 0)
(-0.00233374 -0.00199104 0)
(-0.00126627 -0.00128611 0)
(-0.000538813 -0.000630045 0)
(-0.000129793 -0.000110759 0)
(-5.90456e-07 0.000130299 0)
(-3.37009e-05 -3.34657e-06 0)
(-0.000310131 0.000567949 0)
(-0.00100057 0.00145864 0)
(-0.00209861 0.00249822 0)
(-0.00360122 0.00357636 0)
(-0.00549772 0.0046171 0)
(-0.00776045 0.00556936 0)
(-0.0103491 0.00640029 0)
(-0.0132149 0.00708999 0)
(-0.0163035 0.00762762 0)
(-0.019557 0.00800882 0)
(-0.0229164 0.00823385 0)
(-0.0263224 0.00830632 0)
(-0.0297172 0.00823219 0)
(-0.0330451 0.00801917 0)
(-0.0362534 0.00767622 0)
(-0.0392927 0.0072132 0)
(-0.0421174 0.00664068 0)
(-0.0446862 0.00596972 0)
(-0.0469621 0.00521182 0)
(-0.0489127 0.00437883 0)
(-0.0505105 0.00348291 0)
(-0.0517328 0.00253658 0)
(-0.0525621 0.00155263 0)
(-0.0529862 0.000544215 0)
(-0.052998 -0.000475209 0)
(-0.0525961 -0.00149186 0)
(-0.0517847 -0.00249165 0)
(-0.0505734 -0.00346026 0)
(-0.048978 -0.00438318 0)
(-0.0470195 -0.00524581 0)
(-0.0447251 -0.00603361 0)
(-0.0421275 -0.00673223 0)
(-0.0392648 -0.00732774 0)
(-0.0361805 -0.00780686 0)
(-0.0329228 -0.00815721 0)
(-0.0295444 -0.00836768 0)
(-0.0261018 -0.00842878 0)
(-0.0226544 -0.0083331 0)
(-0.0192634 -0.00807586 0)
(-0.015991 -0.00765558 0)
(-0.0128984 -0.00707495 0)
(-0.0100444 -0.00634208 0)
(-0.00748304 -0.00547205 0)
(-0.00526106 -0.00448937 0)
(-0.0034153 -0.00343128 0)
(-0.00196849 -0.00235267 0)
(-0.000925186 -0.00133205 0)
(-0.000280052 -0.0004802 0)
(-2.81851e-05 3.5494e-05 0)
(-6.11748e-05 0.000188493 0)
(-0.000465908 0.00117313 0)
(-0.001407 0.002498 0)
(-0.0028385 0.00397758 0)
(-0.00473604 0.00548528 0)
(-0.00707792 0.00693005 0)
(-0.00982734 0.0082481 0)
(-0.0129359 0.00939677 0)
(-0.0163473 0.010349 0)
(-0.0200001 0.0110894 0)
(-0.0238291 0.0116111 0)
(-0.0277678 0.0119135 0)
(-0.0317497 0.012001 0)
(-0.0357097 0.0118812 0)
(-0.0395849 0.0115645 0)
(-0.0433157 0.0110632 0)
(-0.046846 0.0103908 0)
(-0.0501242 0.00956236 0)
(-0.0531032 0.00859335 0)
(-0.0557411 0.00750015 0)
(-0.058001 0.00629965 0)
(-0.0598515 0.00500925 0)
(-0.0612669 0.00364686 0)
(-0.0622272 0.00223084 0)
(-0.0627185 0.000780017 0)
(-0.0627328 -0.000686306 0)
(-0.0622685 -0.0021484 0)
(-0.0613304 -0.00358613 0)
(-0.0599296 -0.00497905 0)
(-0.0580838 -0.00630648 0)
(-0.0558171 -0.00754765 0)
(-0.0531604 -0.00868191 0)
(-0.0501506 -0.00968896 0)
(-0.0468312 -0.0105491 0)
(-0.0432513 -0.0112438 0)
(-0.0394656 -0.0117555 0)
(-0.0355336 -0.012069 0)
(-0.031519 -0.0121713 0)
(-0.027489 -0.0120522 0)
(-0.0235126 -0.0117057 0)
(-0.0196596 -0.0111305 0)
(-0.0159993 -0.0103308 0)
(-0.0125978 -0.00931877 0)
(-0.00951688 -0.00811549 0)
(-0.00681074 -0.0067542 0)
(-0.00452424 -0.00528368 0)
(-0.00268887 -0.0037731 0)
(-0.00131945 -0.00231744 0)
(-0.000430605 -0.00104497 0)
(-5.46075e-05 -0.000139217 0)
(-8.65457e-05 0.000459915 0)
(-0.000615836 0.00197894 0)
(-0.00180553 0.00383063 0)
(-0.00357045 0.00582201 0)
(-0.00586339 0.0078155 0)
(-0.00864969 0.00970861 0)
(-0.0118817 0.0114272 0)
(-0.0155017 0.0129202 0)
(-0.0194454 0.0141541 0)
(-0.0236437 0.0151092 0)
(-0.0280246 0.0157764 0)
(-0.0325149 0.0161543 0)
(-0.0370414 0.016248 0)
(-0.0415326 0.0160671 0)
(-0.0459195 0.0156248 0)
(-0.0501366 0.0149369 0)
(-0.0541223 0.0140214 0)
(-0.0578198 0.0128977 0)
(-0.0611774 0.0115864 0)
(-0.0641488 0.0101094 0)
(-0.0666934 0.00848905 0)
(-0.0687766 0.00674868 0)
(-0.07037 0.0049122 0)
(-0.0714517 0.00300418 0)
(-0.0720062 0.00104983 0)
(-0.0720249 -0.000925062 0)
(-0.0715057 -0.0028941 0)
(-0.070454 -0.00483042 0)
(-0.0688819 -0.00670671 0)
(-0.0668089 -0.00849542 0)
(-0.0642614 -0.0101689 0)
(-0.0612732 -0.0116998 0)
(-0.0578851 -0.0130611 0)
(-0.0541445 -0.0142268 0)
(-0.0501055 -0.0151722 0)
(-0.0458281 -0.0158747 0)
(-0.0413777 -0.0163139 0)
(-0.0368244 -0.0164731 0)
(-0.0322417 -0.0163394 0)
(-0.0277057 -0.0159051 0)
(-0.0232934 -0.0151688 0)
(-0.0190813 -0.0141367 0)
(-0.0151431 -0.0128244 0)
(-0.0115483 -0.0112591 0)
(-0.0083595 -0.00948214 0)
(-0.0056309 -0.00755283 0)
(-0.00340452 -0.00555254 0)
(-0.0017075 -0.00358955 0)
(-0.000575899 -0.00180481 0)
(-7.90132e-05 -0.000390901 0)
(-0.000109826 0.000806564 0)
(-0.000758305 0.00297988 0)
(-0.00219047 0.0054524 0)
(-0.00428389 0.00802868 0)
(-0.00696841 0.0105644 0)
(-0.0101953 0.0129489 0)
(-0.013905 0.0151004 0)
(-0.0180293 0.0169607 0)
(-0.022495 0.0184914 0)
(-0.0272254 0.0196691 0)
(-0.0321413 0.0204827 0)
(-0.037163 0.0209307 0)
(-0.0422113 0.0210191 0)
(-0.0472089 0.0207598 0)
(-0.0520813 0.0201689 0)
(-0.0567578 0.0192663 0)
(-0.0611723 0.0180744 0)
(-0.0652635 0.0166178 0)
(-0.0689757 0.0149226 0)
(-0.072259 0.0130163 0)
(-0.0750698 0.0109276 0)
(-0.0773709 0.00868606 0)
(-0.0791315 0.00632214 0)
(-0.0803281 0.00386717 0)
(-0.0809439 0.00135325 0)
(-0.0809693 -0.00118674 0)
(-0.0804024 -0.00371922 0)
(-0.0792485 -0.00620997 0)
(-0.0775205 -0.00862428 0)
(-0.0752392 -0.0109271 0)
(-0.072433 -0.0130835 0)
(-0.069138 -0.0150584 0)
(-0.0653977 -0.0168179 0)
(-0.0612634 -0.018329 0)
(-0.0567928 -0.0195605 0)
(-0.0520508 -0.0204837 0)
(-0.0471076 -0.0210732 0)
(-0.0420388 -0.0213078 0)
(-0.0369241 -0.0211714 0)
(-0.0318459 -0.0206545 0)
(-0.0268881 -0.0197553 0)
(-0.0221342 -0.0184815 0)
(-0.0176659 -0.016852 0)
(-0.013561 -0.0148993 0)
(-0.00989123 -0.012672 0)
(-0.00672142 -0.0102384 0)
(-0.00410542 -0.0076901 0)
(-0.00208382 -0.00514566 0)
(-0.000714322 -0.00275506 0)
(-0.000101391 -0.000715471 0)
(-0.000131319 0.0012241 0)
(-0.000893523 0.00416885 0)
(-0.00256069 0.0073564 0)
(-0.00497558 0.0105917 0)
(-0.00804576 0.0137267 0)
(-0.011708 0.0166458 0)
(-0.0158899 0.0192613 0)
(-0.0205121 0.0215104 0)
(-0.025492 0.0233506 0)
(-0.0307445 0.024756 0)
(-0.0361833 0.0257144 0)
(-0.0417221 0.0262247 0)
(-0.0472757 0.0262942 0)
(-0.0527614 0.0259374 0)
(-0.0581 0.0251741 0)
(-0.0632161 0.0240283 0)
(-0.0680395 0.0225274 0)
(-0.0725053 0.0207013 0)
(-0.0765543 0.0185822 0)
(-0.0801337 0.0162038 0)
(-0.0831972 0.0136011 0)
(-0.0857055 0.0108106 0)
(-0.0876259 0.00786959 0)
(-0.0889333 0.00481663 0)
(-0.0896099 0.00169115 0)
(-0.0896455 -0.00146646 0)
(-0.0890375 -0.00461497 0)
(-0.0877915 -0.00771236 0)
(-0.0859209 -0.010716 0)
(-0.0834473 -0.0135831 0)
(-0.0804005 -0.0162704 0)
(-0.0768183 -0.0187353 0)
(-0.0727467 -0.020936 0)
(-0.0682397 -0.022832 0)
(-0.0633585 -0.0243852 0)
(-0.0581716 -0.0255603 0)
(-0.052754 -0.0263263 0)
(-0.0471861 -0.026657 0)
(-0.0415532 -0.0265328 0)
(-0.0359439 -0.0259416 0)
(-0.0304487 -0.0248809 0)
(-0.0251589 -0.0233592 0)
(-0.020164 -0.0213979 0)
(-0.0155508 -0.0190339 0)
(-0.0114015 -0.0163222 0)
(-0.00779207 -0.0133384 0)
(-0.0047893 -0.0101823 0)
(-0.00244773 -0.00698063 0)
(-0.000846223 -0.00388969 0)
(-0.000122055 -0.00110889 0)
(-0.000151397 0.00170874 0)
(-0.0010225 0.00553887 0)
(-0.0029174 0.00953504 0)
(-0.00564646 0.0135041 0)
(-0.00909583 0.0172966 0)
(-0.0131878 0.0207937 0)
(-0.0178366 0.0239045 0)
(-0.0229513 0.0265629 0)
(-0.0284391 0.028724 0)
(-0.0342064 0.0303606 0)
(-0.0401591 0.0314605 0)
(-0.0462044 0.0320233 0)
(-0.0522514 0.0320588 0)
(-0.0582121 0.0315844 0)
(-0.0640026 0.0306239 0)
(-0.0695437 0.0292061 0)
(-0.0747613 0.0273638 0)
(-0.0795874 0.0251327 0)
(-0.08396 0.0225512 0)
(-0.0878238 0.0196595 0)
(-0.0911303 0.0164996 0)
(-0.0938383 0.0131149 0)
(-0.0959136 0.00955013 0)
(-0.0973299 0.00585129 0)
(-0.0980683 0.00206548 0)
(-0.0981178 -0.00175907 0)
(-0.0974756 -0.00557314 0)
(-0.096147 -0.00932658 0)
(-0.0941455 -0.0129685 0)
(-0.0914934 -0.0164477 0)
(-0.0882212 -0.0197126 0)
(-0.0843682 -0.0227123 0)
(-0.0799822 -0.0253967 0)
(-0.0751191 -0.0277175 0)
(-0.0698433 -0.0296289 0)
(-0.0642264 -0.0310885 0)
(-0.0583474 -0.0320591 0)
(-0.0522915 -0.0325089 0)
(-0.0461493 -0.032414 0)
(-0.0400153 -0.0317593 0)
(-0.0339872 -0.0305407 0)
(-0.0281636 -0.0287666 0)
(-0.022643 -0.0264602 0)
(-0.0175219 -0.023662 0)
(-0.0128932 -0.0204314 0)
(-0.00884534 -0.0168504 0)
(-0.0054584 -0.0130253 0)
(-0.00280115 -0.0090891 0)
(-0.000972853 -0.00520301 0)
(-0.000141417 -0.00156777 0)
(-0.000170425 0.00225742 0)
(-0.00114654 0.00708384 0)
(-0.00326298 0.0119813 0)
(-0.00629968 0.0167592 0)
(-0.0101223 0.0212678 0)
(-0.0146387 0.0253873 0)
(-0.0197497 0.0290249 0)
(-0.0253523 0.032113 0)
(-0.0313432 0.0346058 0)
(-0.0376196 0.0364762 0)
(-0.0440797 0.0377127 0)
(-0.0506239 0.0383172 0)
(-0.0571553 0.0383021 0)
(-0.063581 0.0376889 0)
(-0.0698129 0.036506 0)
(-0.0757678 0.0347872 0)
(-0.0813685 0.0325713 0)
(-0.0865442 0.0299002 0)
(-0.0912304 0.0268188 0)
(-0.0953699 0.0233743 0)
(-0.0989124 0.0196158 0)
(-0.101815 0.0155941 0)
(-0.104042 0.0113614 0)
(-0.105567 0.00697139 0)
(-0.106369 0.00247915 0)
(-0.106437 -0.00205907 0)
(-0.105768 -0.00658578 0)
(-0.104366 -0.0110425 0)
(-0.102244 -0.0153697 0)
(-0.0994262 -0.0195074 0)
(-0.0959423 -0.0233956 0)
(-0.0918327 -0.0269745 0)
(-0.0871463 -0.0301853 0)
(-0.081941 -0.0329711 0)
(-0.0762833 -0.0352782 0)
(-0.0702479 -0.0370565 0)
(-0.0639172 -0.0382615 0)
(-0.0573809 -0.0388555 0)
(-0.0507346 -0.0388093 0)
(-0.0440792 -0.038104 0)
(-0.0375193 -0.036733 0)
(-0.0311617 -0.0347035 0)
(-0.0251142 -0.0320397 0)
(-0.0194834 -0.0287839 0)
(-0.014374 -0.0249995 0)
(-0.00988745 -0.020773 0)
(-0.00611752 -0.0162161 0)
(-0.00314733 -0.0114669 0)
(-0.00109585 -0.00669064 0)
(-0.000159898 -0.00208961 0)
(-0.000188731 0.00286788 0)
(-0.00126701 0.00879895 0)
(-0.00360026 0.0146895 0)
(-0.00693945 0.0203512 0)
(-0.0111305 0.0256354 0)
(-0.0160671 0.030422 0)
(-0.0216366 0.0346182 0)
(-0.0277234 0.0381565 0)
(-0.0342136 0.0409914 0)
(-0.0409948 0.0430973 0)
(-0.0479572 0.044465 0)
(-0.0549942 0.0450991 0)
(-0.0620032 0.0450162 0)
(-0.0688862 0.0442422 0)
(-0.0755509 0.0428108 0)
(-0.0819108 0.040762 0)
(-0.0878857 0.0381404 0)
(-0.0934023 0.0349948 0)
(-0.0983944 0.0313771 0)
(-0.102803 0.0273416 0)
(-0.106576 0.0229448 0)
(-0.10967 0.0182451 0)
(-0.112048 0.0133024 0)
(-0.113682 0.00817832 0)
(-0.114551 0.00293585 0)
(-0.114642 -0.0023605 0)
(-0.113953 -0.00764484 0)
(-0.112486 -0.0128501 0)
(-0.110256 -0.017908 0)
(-0.107283 -0.0227498 0)
(-0.1036 -0.0273062 0)
(-0.0992473 -0.0315084 0)
(-0.0942736 -0.0352885 0)
(-0.0887383 -0.0385807 0)
(-0.0827098 -0.0413223 0)
(-0.0762652 -0.0434549 0)
(-0.0694904 -0.0449263 0)
(-0.062479 -0.0456918 0)
(-0.0553319 -0.0457159 0)
(-0.0481561 -0.0449749 0)
(-0.0410635 -0.0434585 0)
(-0.0341696 -0.041172 0)
(-0.0275917 -0.0381387 0)
(-0.0214476 -0.0344022 0)
(-0.0158543 -0.0300282 0)
(-0.0109266 -0.0251067 0)
(-0.00677275 -0.0197537 0)
(-0.00349012 -0.0141118 0)
(-0.00121696 -0.00834998 0)
(-0.00017789 -0.00267286 0)
(-0.0002066 0.00353858 0)
(-0.00138522 0.0106808 0)
(-0.00393215 0.0176554 0)
(-0.00757038 0.024276 0)
(-0.0121266 0.0303954 0)
(-0.0174804 0.0358944 0)
(-0.0235056 0.0406813 0)
(-0.0300741 0.04469 0)
(-0.0370605 0.0478773 0)
(-0.0443431 0.05022 0)
(-0.0518036 0.0517123 0)
(-0.0593284 0.0523633 0)
(-0.0668089 0.0521943 0)
(-0.0741424 0.0512369 0)
(-0.0812325 0.0495307 0)
(-0.0879895 0.0471222 0)
(-0.0943307 0.044063 0)
(-0.100181 0.0404091 0)
(-0.105472 0.0362195 0)
(-0.110143 0.031556 0)
(-0.114143 0.0264829 0)
(-0.117425 0.0210661 0)
(-0.119953 0.0153733 0)
(-0.121697 0.00947426 0)
(-0.122636 0.00343992 0)
(-0.122758 -0.00265693 0)
(-0.122055 -0.00874197 0)
(-0.120534 -0.0147394 0)
(-0.118206 -0.0205723 0)
(-0.115091 -0.0261625 0)
(-0.111222 -0.0314317 0)
(-0.106639 -0.0363014 0)
(-0.10139 -0.0406944 0)
(-0.0955371 -0.0445351 0)
(-0.0891483 -0.0477515 0)
(-0.0823035 -0.0502761 0)
(-0.0750912 -0.052048 0)
(-0.0676091 -0.0530142 0)
(-0.0599632 -0.0531325 0)
(-0.0522668 -0.0523727 0)
(-0.0446392 -0.0507198 0)
(-0.0372048 -0.0481757 0)
(-0.0300914 -0.0447618 0)
(-0.0234284 -0.0405215 0)
(-0.0173456 -0.0355215 0)
(-0.0119721 -0.0298544 0)
(-0.00743077 -0.0236397 0)
(-0.00383359 -0.0170241 0)
(-0.00133794 -0.0101804 0)
(-0.000195754 -0.00331696 0)
(-0.000224279 0.00426868 0)
(-0.00150239 0.0127275 0)
(-0.00426147 0.0208766 0)
(-0.00819703 0.0285311 0)
(-0.0131168 0.0355454 0)
(-0.0188863 0.0418021 0)
(-0.0253657 0.0472119 0)
(-0.0324139 0.0517114 0)
(-0.0398943 0.0552606 0)
(-0.0476753 0.0578406 0)
(-0.05563 0.0594504 0)
(-0.0636376 0.0601045 0)
(-0.0715838 0.0598304 0)
(-0.079361 0.058666 0)
(-0.086869 0.0566581 0)
(-0.0940153 0.0538603 0)
(-0.100715 0.0503318 0)
(-0.106891 0.046136 0)
(-0.112474 0.0413398 0)
(-0.117403 0.0360127 0)
(-0.121624 0.0302267 0)
(-0.125092 0.0240554 0)
(-0.12777 0.0175747 0)
(-0.129626 0.0108619 0)
(-0.130639 0.00399625 0)
(-0.130796 -0.00294139 0)
(-0.13009 -0.00986828 0)
(-0.128524 -0.0167 0)
(-0.126109 -0.0233506 0)
(-0.122866 -0.0297329 0)
(-0.118825 -0.0357589 0)
(-0.114024 -0.0413405 0)
(-0.108515 -0.0463903 0)
(-0.102356 -0.050823 0)
(-0.0956184 -0.0545561 0)
(-0.0883825 -0.0575123 0)
(-0.0807399 -0.0596209 0)
(-0.0727917 -0.0608199 0)
(-0.0646489 -0.0610585 0)
(-0.056431 -0.0602992 0)
(-0.0482653 -0.0585207 0)
(-0.0402853 -0.05572 0)
(-0.0326297 -0.0519154 0)
(-0.0254401 -0.0471482 0)
(-0.0188601 -0.0414856 0)
(-0.0130335 -0.0350215 0)
(-0.00809838 -0.0278782 0)
(-0.00418179 -0.0202063 0)
(-0.00146047 -0.0121833 0)
(-0.000213814 -0.00402222 0)
(-0.000241979 0.00505793 0)
(-0.00161961 0.0149384 0)
(-0.00459086 0.0243522 0)
(-0.00882378 0.0331156 0)
(-0.0141071 0.0410846 0)
(-0.0202922 0.0481444 0)
(-0.0272252 0.0542089 0)
(-0.0347521 0.0592187 0)
(-0.0427246 0.0631388 0)
(-0.0510009 0.0659557 0)
(-0.0594456 0.0676748 0)
(-0.0679307 0.0683172 0)
(-0.0763359 0.0679178 0)
(-0.0845491 0.0665222 0)
(-0.0924665 0.0641851 0)
(-0.0999931 0.0609682 0)
(-0.107042 0.0569387 0)
(-0.113535 0.0521682 0)
(-0.119402 0.0467316 0)
(-0.124582 0.0407064 0)
(-0.12902 0.0341726 0)
(-0.132671 0.0272117 0)
(-0.135497 0.0199071 0)
(-0.137467 0.0123442 0)
(-0.138559 0.00461006 0)
(-0.138757 -0.0032064 0)
(-0.138056 -0.0110142 0)
(-0.136456 -0.0187203 0)
(-0.133968 -0.02623 0)
(-0.130611 -0.0334469 0)
(-0.126412 -0.0402733 0)
(-0.121411 -0.0466111 0)
(-0.115656 -0.0523627 0)
(-0.109206 -0.0574317 0)
(-0.102132 -0.0617252 0)
(-0.0945167 -0.0651548 0)
(-0.0864522 -0.067639 0)
(-0.0780436 -0.0691054 0)
(-0.0694066 -0.0694934 0)
(-0.0606669 -0.0687566 0)
(-0.0519597 -0.0668657 0)
(-0.0434283 -0.0638115 0)
(-0.0352226 -0.0596072 0)
(-0.0274972 -0.0542913 0)
(-0.0204099 -0.0479294 0)
(-0.0141203 -0.0406161 0)
(-0.00878228 -0.0324762 0)
(-0.00453865 -0.0236639 0)
(-0.00158612 -0.0143619 0)
(-0.00023237 -0.00478985 0)
(-0.000259883 0.00590664 0)
(-0.00173785 0.0173142 0)
(-0.00492271 0.0280832 0)
(-0.00945468 0.0380305 0)
(-0.0151031 0.0470137 0)
(-0.021705 0.0549216 0)
(-0.0290921 0.0616719 0)
(-0.0370971 0.0672108 0)
(-0.0455598 0.0715096 0)
(-0.054328 0.0745617 0)
(-0.0632577 0.0763803 0)
(-0.0722135 0.0769949 0)
(-0.0810695 0.0764489 0)
(-0.0897092 0.0747968 0)
(-0.0980257 0.0721023 0)
(-0.105922 0.068436 0)
(-0.113309 0.0638739 0)
(-0.120108 0.0584964 0)
(-0.12625 0.0523867 0)
(-0.131672 0.0456307 0)
(-0.13632 0.0383161 0)
(-0.14015 0.0305323 0)
(-0.143122 0.0223706 0)
(-0.145207 0.0139238 0)
(-0.146381 0.00528673 0)
(-0.146628 -0.00344394 0)
(-0.145942 -0.0121692 0)
(-0.14432 -0.0207878 0)
(-0.141773 -0.0291962 0)
(-0.138318 -0.0372889 0)
(-0.133979 -0.0449586 0)
(-0.128796 -0.0520968 0)
(-0.122813 -0.0585953 0)
(-0.116089 -0.0643465 0)
(-0.108696 -0.0692457 0)
(-0.100714 -0.0731928 0)
(-0.0922383 -0.0760942 0)
(-0.0833772 -0.0778658 0)
(-0.0742504 -0.0784355 0)
(-0.0649897 -0.0777464 0)
(-0.0557384 -0.0757595 0)
(-0.0466497 -0.0724574 0)
(-0.0378852 -0.0678467 0)
(-0.0296132 -0.0619612 0)
(-0.0220067 -0.054864 0)
(-0.0152416 -0.0466492 0)
(-0.00948892 -0.0374434 0)
(-0.00490792 -0.0274047 0)
(-0.00171642 -0.0167216 0)
(-0.000251694 -0.00562184 0)
(-0.000278153 0.00681559 0)
(-0.00185801 0.0198565 0)
(-0.00525925 0.0320718 0)
(-0.0100934 0.043278 0)
(-0.0161101 0.0533349 0)
(-0.023131 0.0621348 0)
(-0.0309734 0.0696012 0)
(-0.0394561 0.0756865 0)
(-0.0484068 0.0803699 0)
(-0.0576627 0.0836537 0)
(-0.0670707 0.0855603 0)
(-0.0764886 0.0861291 0)
(-0.0857848 0.0854136 0)
(-0.0948388 0.0834785 0)
(-0.103541 0.0803976 0)
(-0.111792 0.0762513 0)
(-0.119503 0.0711254 0)
(-0.126595 0.0651093 0)
(-0.132998 0.0582951 0)
(-0.138651 0.050777 0)
(-0.143501 0.0426508 0)
(-0.147503 0.0340137 0)
(-0.150619 0.0249643 0)
(-0.152818 0.015603 0)
(-0.154078 0.0060316 0)
(-0.154381 -0.00364556 0)
(-0.153719 -0.0133219 0)
(-0.15209 -0.0228883 0)
(-0.149501 -0.0322328 0)
(-0.145965 -0.0412408 0)
(-0.141508 -0.0497954 0)
(-0.136163 -0.0577779 0)
(-0.129974 -0.0650688 0)
(-0.122998 -0.0715489 0)
(-0.115304 -0.0771011 0)
(-0.106974 -0.0816122 0)
(-0.0981021 -0.0849756 0)
(-0.0887998 -0.0870936 0)
(-0.0791903 -0.0878812 0)
(-0.0694117 -0.0872689 0)
(-0.059615 -0.0852061 0)
(-0.0499636 -0.0816651 0)
(-0.0406315 -0.076644 0)
(-0.031801 -0.0701702 0)
(-0.0236615 -0.0623027 0)
(-0.0164062 -0.0531341 0)
(-0.0102245 -0.0427921 0)
(-0.0052932 -0.0314389 0)
(-0.00185278 -0.0192695 0)
(-0.000272043 -0.00652095 0)
(-0.000296934 0.00778601 0)
(-0.0019809 0.0225683 0)
(-0.00560251 0.0363217 0)
(-0.0107436 0.048862 0)
(-0.0171327 0.0600513 0)
(-0.0245761 0.0697865 0)
(-0.0328755 0.0779972 0)
(-0.0418355 0.0846443 0)
(-0.051271 0.0897162 0)
(-0.0610086 0.0932256 0)
(-0.0708864 0.0952063 0)
(-0.0807549 0.095709 0)
(-0.0904775 0.0947991 0)
(-0.09993 0.092553 0)
(-0.109 0.0890555 0)
(-0.117588 0.0843983 0)
(-0.125605 0.0786773 0)
(-0.132972 0.0719918 0)
(-0.13962 0.064443 0)
(-0.14549 0.0561337 0)
(-0.150529 0.0471678 0)
(-0.154694 0.0376499 0)
(-0.157947 0.0276858 0)
(-0.16026 0.0173828 0)
(-0.161607 0.0068497 0)
(-0.161973 -0.00380245 0)
(-0.161347 -0.01446 0)
(-0.159725 -0.0250062 0)
(-0.157112 -0.0353211 0)
(-0.153518 -0.0452816 0)
(-0.148966 -0.0547612 0)
(-0.143485 -0.0636308 0)
(-0.137116 -0.0717597 0)
(-0.129914 -0.0790164 0)
(-0.121945 -0.0852705 0)
(-0.113288 -0.0903948 0)
(-0.10404 -0.0942681 0)
(-0.0943122 -0.0967779 0)
(-0.0842313 -0.0978239 0)
(-0.0739408 -0.097322 0)
(-0.0635998 -0.0952079 0)
(-0.0533819 -0.0914413 0)
(-0.0434735 -0.0860096 0)
(-0.0340724 -0.0789317 0)
(-0.0253846 -0.0702606 0)
(-0.0176225 -0.0600864 0)
(-0.0109949 -0.0485373 0)
(-0.00569792 -0.0357792 0)
(-0.00199656 -0.0220142 0)
(-0.00029366 -0.00749064 0)
(-0.000316364 0.00881951 0)
(-0.00210731 0.0254533 0)
(-0.00595445 0.0408377 0)
(-0.0114083 0.0547876 0)
(-0.0181754 0.0671675 0)
(-0.0260454 0.0778794 0)
(-0.0348037 0.0868608 0)
(-0.04424 0.0940821 0)
(-0.0541561 0.0995432 0)
(-0.0643674 0.103269 0)
(-0.0747034 0.105307 0)
(-0.0850076 0.10572 0)
(-0.0951385 0.104589 0)
(-0.104969 0.102001 0)
(-0.114385 0.098056 0)
(-0.123287 0.0928562 0)
(-0.131585 0.0865091 0)
(-0.139204 0.0791243 0)
(-0.146075 0.0708127 0)
(-0.152142 0.0616856 0)
(-0.157354 0.0518548 0)
(-0.161669 0.0414322 0)
(-0.165052 0.0305305 0)
(-0.167474 0.0192632 0)
(-0.168912 0.00774544 0)
(-0.169347 -0.00390561 0)
(-0.168768 -0.0155698 0)
(-0.16717 -0.0271236 0)
(-0.164553 -0.0384398 0)
(-0.160926 -0.0493868 0)
(-0.156306 -0.0598291 0)
(-0.15072 -0.0696274 0)
(-0.144204 -0.0786393 0)
(-0.136807 -0.0867207 0)
(-0.128593 -0.0937273 0)
(-0.119639 -0.0995167 0)
(-0.110041 -0.103952 0)
(-0.0999084 -0.106903 0)
(-0.0893724 -0.108253 0)
(-0.0785807 -0.107901 0)
(-0.0676998 -0.105765 0)
(-0.0569136 -0.101792 0)
(-0.0464217 -0.0959539 0)
(-0.0364376 -0.0882597 0)
(-0.0271855 -0.0787545 0)
(-0.0188982 -0.0675241 0)
(-0.0118057 -0.0546962 0)
(-0.0061254 -0.0404403 0)
(-0.00214909 -0.0249664 0)
(-0.000316784 -0.00853508 0)
(-0.000336581 0.00991813 0)
(-0.00223799 0.0285164 0)
(-0.006317 0.0456262 0)
(-0.0120909 0.0610611 0)
(-0.0192427 0.0746885 0)
(-0.0275439 0.0864166 0)
(-0.036763 0.0961921 0)
(-0.0466736 0.103997 0)
(-0.057064 0.109844 0)
(-0.0677384 0.113773 0)
(-0.0785171 0.115846 0)
(-0.0892374 0.116144 0)
(-0.0997533 0.11476 0)
(-0.109935 0.111799 0)
(-0.119668 0.107373 0)
(-0.128853 0.101598 0)
(-0.137404 0.0945945 0)
(-0.145245 0.0864818 0)
(-0.152312 0.077381 0)
(-0.158551 0.0674124 0)
(-0.163914 0.0566952 0)
(-0.168363 0.0453486 0)
(-0.171864 0.0334911 0)
(-0.17439 0.0212422 0)
(-0.175916 0.00872224 0)
(-0.176426 -0.00394602 0)
(-0.175907 -0.016637 0)
(-0.17435 -0.0292211 0)
(-0.171753 -0.0415645 0)
(-0.168122 -0.053528 0)
(-0.163467 -0.0649676 0)
(-0.157811 -0.0757337 0)
(-0.151185 -0.0856726 0)
(-0.143633 -0.0946271 0)
(-0.135213 -0.102438 0)
(-0.125999 -0.108947 0)
(-0.116082 -0.113999 0)
(-0.105574 -0.117447 0)
(-0.0946061 -0.119152 0)
(-0.0833293 -0.118995 0)
(-0.0719177 -0.116875 0)
(-0.060565 -0.11272 0)
(-0.0494844 -0.106486 0)
(-0.0389058 -0.0981685 0)
(-0.0290731 -0.0878022 0)
(-0.0202408 -0.0754667 0)
(-0.0126624 -0.0612881 0)
(-0.0065789 -0.0454393 0)
(-0.00231168 -0.0281381 0)
(-0.000341654 -0.00965912 0)
(-0.000357726 0.0110843 0)
(-0.00237377 0.0317632 0)
(-0.00669215 0.0506945 0)
(-0.0127946 0.0676901 0)
(-0.0203386 0.0826207 0)
(-0.0290764 0.0954017 0)
(-0.0387577 0.105991 0)
(-0.0491393 0.114383 0)
(-0.0599953 0.120608 0)
(-0.0711183 0.124722 0)
(-0.0823198 0.126806 0)
(-0.093431 0.126956 0)
(-0.104302 0.125286 0)
(-0.114802 0.121916 0)
(-0.124816 0.116974 0)
(-0.134247 0.110592 0)
(-0.143011 0.1029 0)
(-0.151037 0.0940323 0)
(-0.158265 0.0841186 0)
(-0.164644 0.073288 0)
(-0.170132 0.0616675 0)
(-0.174693 0.0493823 0)
(-0.178296 0.0365568 0)
(-0.180915 0.0233151 0)
(-0.182528 0.00978219 0)
(-0.183118 -0.00391494 0)
(-0.18267 -0.0176461 0)
(-0.181174 -0.0312769 0)
(-0.178624 -0.0446677 0)
(-0.17502 -0.0576726 0)
(-0.170368 -0.0701396 0)
(-0.164685 -0.0819096 0)
(-0.157994 -0.0928176 0)
(-0.150333 -0.102693 0)
(-0.141754 -0.111361 0)
(-0.132325 -0.118647 0)
(-0.122133 -0.124376 0)
(-0.111287 -0.128379 0)
(-0.0999172 -0.130498 0)
(-0.0881789 -0.130589 0)
(-0.0762516 -0.12853 0)
(-0.0643389 -0.124226 0)
(-0.0526676 -0.117614 0)
(-0.0414847 -0.108672 0)
(-0.0310551 -0.097422 0)
(-0.0216573 -0.0839352 0)
(-0.0135704 -0.0683344 0)
(-0.00706165 -0.0507949 0)
(-0.00248567 -0.031543 0)
(-0.000368515 -0.0108683 0)
(-0.000379962 0.0123208 0)
(-0.00251554 0.0352004 0)
(-0.00708212 0.0560513 0)
(-0.0135231 0.0746831 0)
(-0.021468 0.0909706 0)
(-0.0306478 0.104838 0)
(-0.0407919 0.116255 0)
(-0.0516393 0.125234 0)
(-0.062949 0.131823 0)
(-0.0745016 0.136098 0)
(-0.0861001 0.138159 0)
(-0.0975699 0.138126 0)
(-0.108758 0.136131 0)
(-0.119534 0.132313 0)
(-0.129784 0.126818 0)
(-0.139414 0.119793 0)
(-0.148345 0.111384 0)
(-0.15651 0.101736 0)
(-0.163856 0.0909883 0)
(-0.170336 0.0792797 0)
(-0.175914 0.0667438 0)
(-0.180558 0.0535118 0)
(-0.184241 0.0397127 0)
(-0.18694 0.0254745 0)
(-0.188635 0.0109255 0)
(-0.189308 -0.0038042 0)
(-0.188943 -0.0185811 0)
(-0.187528 -0.0332672 0)
(-0.185054 -0.0477183 0)
(-0.181514 -0.0617831 0)
(-0.17691 -0.0753022 0)
(-0.171248 -0.0881079 0)
(-0.164546 -0.100024 0)
(-0.156833 -0.110867 0)
(-0.148152 -0.120446 0)
(-0.138563 -0.128568 0)
(-0.128149 -0.135038 0)
(-0.117012 -0.139663 0)
(-0.105282 -0.14226 0)
(-0.0931146 -0.142661 0)
(-0.0806945 -0.140716 0)
(-0.0682344 -0.136305 0)
(-0.0559746 -0.129341 0)
(-0.0441804 -0.119782 0)
(-0.0331388 -0.107632 0)
(-0.0231544 -0.0929519 0)
(-0.0145349 -0.0758583 0)
(-0.00757699 -0.0565282 0)
(-0.00267243 -0.0351964 0)
(-0.000397629 -0.0121688 0)
(-0.000403476 0.0136311 0)
(-0.00266433 0.0388361 0)
(-0.00748944 0.0617066 0)
(-0.0142803 0.0820501 0)
(-0.0226359 0.0997456 0)
(-0.0322633 0.114728 0)
(-0.04287 0.126983 0)
(-0.0541754 0.13654 0)
(-0.0659227 0.143471 0)
(-0.0778804 0.147874 0)
(-0.0898429 0.149874 0)
(-0.101631 0.149615 0)
(-0.11309 0.14725 0)
(-0.124089 0.142942 0)
(-0.13452 0.136855 0)
(-0.144291 0.129152 0)
(-0.153331 0.119996 0)
(-0.161579 0.109543 0)
(-0.168989 0.0979444 0)
(-0.175522 0.0853463 0)
(-0.181148 0.0718892 0)
(-0.185839 0.0577092 0)
(-0.189575 0.0429389 0)
(-0.192336 0.027709 0)
(-0.194104 0.0121499 0)
(-0.194861 -0.00360658 0)
(-0.194592 -0.0194253 0)
(-0.19328 -0.0351661 0)
(-0.190913 -0.0506817 0)
(-0.187479 -0.0658167 0)
(-0.18297 -0.0804058 0)
(-0.177387 -0.0942733 0)