/*--------------------------------*- C++ -*----------------------------------*\
| =========                 |                                                 |
| \\      /  F ield         | OpenFOAM: The Open Source CFD Toolbox           |
|  \\    /   O peration     | Version:  v2012                                 |
|   \\  /    A nd           | Website:  www.openfoam.com                      |
|    \\/     M anipulation  |                                                 |
\*---------------------------------------------------------------------------*/
FoamFile
{
    version     2.0;
    format      ascii;
    class       surfaceScalarField;
    location    "0.4";
    object      phi;
}
// * * * * * * * * * * * * * * * * * * * * * * * * * * * * * * * * * * * * * //

dimensions      [0 3 -1 0 0 0 0];
oriented        oriented;


internalField   nonuniform List<scalar> 
2425
(
1.17852e-09
-1.18765e-09
2.41876e-09
-1.24024e-09
2.51883e-09
-1.00071e-10
1.04046e-09
1.47837e-09
-2.09677e-09
3.13723e-09
-6.80487e-09
4.7081e-09
-1.29135e-08
6.10861e-09
-2.02148e-08
7.30132e-09
-2.84868e-08
8.27202e-09
-3.75055e-08
9.01869e-09
-4.70515e-08
9.54603e-09
-5.69141e-08
9.86261e-09
-6.68934e-08
9.9793e-09
-7.68018e-08
9.90838e-09
-8.64647e-08
9.66292e-09
-9.57212e-08
9.25649e-09
-1.04424e-07
8.7029e-09
-1.1244e-07
8.01615e-09
-1.19651e-07
7.21031e-09
-1.2595e-07
6.29958e-09
-1.31248e-07
5.29827e-09
-1.35469e-07
4.22089e-09
-1.38551e-07
3.08218e-09
-1.40449e-07
1.89722e-09
6.81481e-10
1.2501e-09
-2.43775e-09
1.449e-09
-1.43915e-09
-1.16048e-09
2.5094e-09
-7.38606e-09
7.70395e-09
-1.74782e-08
1.32293e-08
-3.13285e-08
1.85584e-08
-4.86115e-08
2.33916e-08
-6.88773e-08
2.75671e-08
-9.16098e-08
3.10045e-08
-1.16263e-07
3.3672e-08
-1.42285e-07
3.5568e-08
-1.69132e-07
3.67099e-08
-1.9628e-07
3.71274e-08
-2.2323e-07
3.68584e-08
-2.49514e-07
3.59461e-08
-2.74694e-07
3.44369e-08
-2.98371e-07
3.238e-08
-3.20181e-07
2.98258e-08
-3.39797e-07
2.68261e-08
-3.56931e-07
2.34336e-08
-3.71334e-07
1.97021e-08
-3.828e-07
1.56861e-08
-3.91159e-07
1.14414e-08
-3.96287e-07
7.02518e-09
2.49588e-09
1.54516e-10
-2.59227e-09
-2.40579e-09
1.12115e-09
-9.35561e-09
9.45922e-09
-2.15329e-08
1.98812e-08
-3.92039e-08
3.09003e-08
-6.22222e-08
4.15767e-08
-9.01581e-08
5.13276e-08
-1.224e-07
5.98087e-08
-1.58225e-07
6.68293e-08
-1.96851e-07
7.22982e-08
-2.37473e-07
7.61899e-08
-2.79286e-07
7.8523e-08
-3.21505e-07
7.93463e-08
-3.63375e-07
7.8729e-08
-4.04184e-07
7.67545e-08
-4.43263e-07
7.3516e-08
-4.79996e-07
6.91136e-08
-5.13823e-07
6.36524e-08
-5.44238e-07
5.72412e-08
-5.70796e-07
4.99918e-08
-5.93112e-07
4.20185e-08
-6.10865e-07
3.34386e-08
-6.23795e-07
2.43717e-08
-6.31711e-07
1.49405e-08
5.27087e-09
-1.37817e-09
-1.2141e-09
-7.52806e-09
7.27104e-09
-1.97182e-08
2.16494e-08
-3.85901e-08
3.87531e-08
-6.42891e-08
5.65993e-08
-9.65668e-08
7.38545e-08
-1.34881e-07
8.96415e-08
-1.78481e-07
1.03409e-07
-2.26484e-07
1.14832e-07
-2.77922e-07
1.23736e-07
-3.31791e-07
1.30059e-07
-3.87078e-07
1.33811e-07
-4.42788e-07
1.35056e-07
-4.97957e-07
1.33898e-07
-5.51669e-07
1.30467e-07
-6.03064e-07
1.24911e-07
-6.51344e-07
1.17393e-07
-6.9578e-07
1.08089e-07
-7.35717e-07
9.7178e-08
-7.70574e-07
8.48493e-08
-7.99852e-07
7.1296e-08
-8.2313e-07
5.67164e-08
-8.40072e-07
4.13141e-08
-8.50429e-07
2.52977e-08
8.88103e-09
-3.02161e-09
1.80751e-09
-1.31163e-08
1.73657e-08
-3.09959e-08
3.9529e-08
-5.69698e-08
6.47269e-08
-9.09612e-08
9.05907e-08
-1.32557e-07
1.1545e-07
-1.81072e-07
1.38157e-07
-2.35619e-07
1.57956e-07
-2.95164e-07
1.74377e-07
-3.58587e-07
1.87159e-07
-4.24717e-07
1.96189e-07
-4.92371e-07
2.01465e-07
-5.6038e-07
2.03065e-07
-6.27608e-07
2.01126e-07
-6.92971e-07
1.95829e-07
-7.55447e-07
1.87387e-07
-8.14087e-07
1.76034e-07
-8.68023e-07
1.62024e-07
-9.16469e-07
1.45625e-07
-9.58735e-07
1.27114e-07
-9.94219e-07
1.0678e-07
-1.02242e-06
8.49175e-08
-1.04294e-06
6.18309e-08
-1.05547e-06
3.78318e-08
1.32401e-08
-4.64217e-09
6.44968e-09
-1.87589e-08
3.14825e-08
-4.24827e-08
6.32528e-08
-7.57231e-08
9.79673e-08
-1.18116e-07
1.32984e-07
-1.69032e-07
1.66367e-07
-2.27612e-07
1.96737e-07
-2.92813e-07
2.23156e-07
-3.63456e-07
2.4502e-07
-4.38274e-07
2.61977e-07
-5.15951e-07
2.73866e-07
-5.95158e-07
2.80671e-07
-6.74577e-07
2.82484e-07
-7.52929e-07
2.79478e-07
-8.28989e-07
2.71889e-07
-9.01599e-07
2.59997e-07
-9.69683e-07
2.44118e-07
-1.03226e-06
2.24596e-07
-1.08842e-06
2.01794e-07
-1.1374e-06
1.76092e-07
-1.17851e-06
1.47884e-07
-1.21117e-06
1.17577e-07
-1.23492e-06
8.55881e-08
-1.24944e-06
5.23479e-08
1.82963e-08
-6.18801e-09
1.26377e-08
-2.42613e-08
4.95557e-08
-5.38085e-08
9.28e-08
-9.43206e-08
1.38479e-07
-1.45111e-07
1.83774e-07
-2.05298e-07
2.26553e-07
-2.73817e-07
2.65257e-07
-3.49453e-07
2.98792e-07
-4.30873e-07
3.2644e-07
-5.16665e-07
3.47769e-07
-6.05376e-07
3.62578e-07
-6.95543e-07
3.70838e-07
-7.8572e-07
3.72661e-07
-8.74501e-07
3.68259e-07
-9.60541e-07
3.57928e-07
-1.04257e-06
3.42024e-07
-1.1194e-06
3.2095e-07
-1.18995e-06
2.95147e-07
-1.25324e-06
2.65083e-07
-1.3084e-06
2.31251e-07
-1.35468e-06
1.94161e-07
-1.39144e-06
1.54343e-07
-1.41819e-06
1.1234e-07
-1.43456e-06
6.87104e-08
2.40283e-08
-7.6471e-09
2.02848e-08
-2.95506e-08
7.14592e-08
-6.48108e-08
1.2806e-07
-1.12508e-07
1.86177e-07
-1.7162e-07
2.42886e-07
-2.4099e-07
2.95923e-07
-3.19328e-07
3.43594e-07
-4.05226e-07
3.8469e-07
-4.97186e-07
4.184e-07
-5.93649e-07
4.44232e-07
-6.93024e-07
4.61953e-07
-7.93723e-07
4.71538e-07
-8.94181e-07
4.73118e-07
-9.92879e-07
4.66958e-07
-1.08837e-06
4.53417e-07
-1.17928e-06
4.32933e-07
-1.26433e-06
4.06006e-07
-1.34237e-06
3.7318e-07
-1.41232e-06
3.35038e-07
-1.47326e-06
2.92192e-07
-1.52438e-06
2.4528e-07
-1.565e-06
1.9496e-07
-1.59457e-06
1.41912e-07
-1.61269e-06
8.68339e-08
3.04411e-08
-9.02524e-09
2.931e-08
-3.46183e-08
9.70523e-08
-7.54464e-08
1.68888e-07
-1.30201e-07
2.40931e-07
-1.97522e-07
3.10207e-07
-2.75968e-07
3.74369e-07
-3.64008e-07
4.31634e-07
-4.60026e-07
4.80709e-07
-5.62349e-07
5.20722e-07
-6.69261e-07
5.51143e-07
-7.79035e-07
5.71727e-07
-8.89956e-07
5.82459e-07
-1.00035e-06
5.8351e-07
-1.10859e-06
5.75199e-07
-1.21314e-06
5.57962e-07
-1.31253e-06
5.32328e-07
-1.40542e-06
4.98896e-07
-1.49057e-06
4.58327e-07
-1.56685e-06
4.11322e-07
-1.63328e-06
3.58622e-07
-1.689e-06
3.00997e-07
-1.73328e-06
2.39246e-07
-1.76556e-06
1.74191e-07
-1.7854e-06
1.06674e-07
3.7563e-08
-1.03354e-08
3.96454e-08
-3.94871e-08
1.26204e-07
-8.57372e-08
2.15138e-07
-1.47412e-07
3.02606e-07
-2.22822e-07
3.85617e-07
-3.10235e-07
4.61783e-07
-4.07868e-07
5.29267e-07
-5.1389e-07
5.86732e-07
-6.26439e-07
6.33271e-07
-7.43637e-07
6.68341e-07
-8.63616e-07
6.91706e-07
-9.84537e-07
7.0338e-07
-1.10461e-06
7.03585e-07
-1.22212e-06
6.9271e-07
-1.33544e-06
6.71277e-07
-1.44302e-06
6.39913e-07
-1.54346e-06
5.99332e-07
-1.63544e-06
5.50312e-07
-1.71781e-06
4.93684e-07
-1.78951e-06
4.30324e-07
-1.84965e-06
3.61142e-07
-1.89749e-06
2.87079e-07
-1.9324e-06
2.09107e-07
-1.95395e-06
1.28221e-07
4.54427e-08
-1.15926e-08
5.1238e-08
-4.41943e-08
1.58806e-07
-9.57389e-08
2.66683e-07
-1.64209e-07
3.71076e-07
-2.47596e-07
4.69004e-07
-3.43877e-07
5.58063e-07
-4.51011e-07
6.36401e-07
-5.66943e-07
7.02664e-07
-6.89613e-07
7.55941e-07
-8.16976e-07
7.95704e-07
-9.47017e-07
8.21747e-07
-1.07777e-06
8.34133e-07
-1.20734e-06
8.33155e-07
-1.33391e-06
8.19284e-07
-1.45578e-06
7.93142e-07
-1.57133e-06
7.55468e-07
-1.6791e-06
7.07094e-07
-1.77771e-06
6.4893e-07
-1.86597e-06
5.81941e-07
-1.94279e-06
5.07143e-07
-2.00724e-06
4.25592e-07
-2.05854e-06
3.3838e-07
-2.09606e-06
2.46629e-07
-2.11933e-06
1.5149e-07
5.41459e-08
-1.28121e-08
6.40501e-08
-4.87821e-08
1.94776e-07
-1.05522e-07
3.23423e-07
-1.8069e-07
4.46244e-07
-2.71963e-07
5.60277e-07
-3.77031e-07
6.63131e-07
-4.93592e-07
7.52962e-07
-6.19359e-07
8.2843e-07
-7.5207e-07
8.88653e-07
-8.89504e-07
9.33138e-07
-1.0295e-06
9.61738e-07
-1.16995e-06
9.74591e-07
-1.30887e-06
9.72073e-07
-1.44435e-06
9.54759e-07
-1.57459e-06
9.23385e-07
-1.69794e-06
8.78813e-07
-1.81285e-06
8.22008e-07
-1.91793e-06
7.54015e-07
-2.01194e-06
6.75944e-07
-2.09375e-06
5.88957e-07
-2.16242e-06
4.94261e-07
-2.21714e-06
3.93098e-07
-2.25726e-06
2.86747e-07
-2.28229e-06
1.76518e-07
6.37531e-08
-1.4008e-08
7.8058e-08
-5.32932e-08
2.34061e-07
-1.15163e-07
3.85293e-07
-1.9696e-07
5.28042e-07
-2.96058e-07
6.59374e-07
-4.09856e-07
7.7693e-07
-5.3579e-07
8.78896e-07
-6.71336e-07
9.63976e-07
-8.14024e-07
1.03134e-06
-9.61453e-07
1.08057e-06
-1.1113e-06
1.11159e-06
-1.26135e-06
1.12464e-06
-1.40949e-06
1.12021e-06
-1.55373e-06
1.09899e-06
-1.69219e-06
1.06185e-06
-1.82317e-06
1.00979e-06
-1.94508e-06
9.43919e-07
-2.05649e-06
8.65424e-07
-2.15612e-06
7.75568e-07
-2.24283e-06
6.75666e-07
-2.31564e-06
5.67077e-07
-2.37375e-06
4.512e-07
-2.41647e-06
3.29469e-07
-2.4433e-06
2.03354e-07
7.43568e-08
-1.51931e-08
9.32511e-08
-5.7768e-08
2.76636e-07
-1.24735e-07
4.5226e-07
-2.13129e-07
6.16436e-07
-3.20019e-07
7.66264e-07
-4.42517e-07
8.99428e-07
-5.7779e-07
1.01417e-06
-7.23074e-07
1.10926e-06
-8.75685e-07
1.18395e-06
-1.03304e-06
1.23792e-06
-1.19266e-06
1.27121e-06
-1.3522e-06
1.28418e-06
-1.50943e-06
1.27744e-06
-1.66228e-06
1.25184e-06
-1.80882e-06
1.20839e-06
-1.94727e-06
1.14825e-06
-2.07603e-06
1.07267e-06
-2.19361e-06
9.83012e-07
-2.29873e-06
8.80687e-07
-2.39024e-06
7.67168e-07
-2.46713e-06
6.43972e-07
-2.52858e-06
5.12654e-07
-2.57392e-06
3.74806e-07
-2.60262e-06
2.32053e-07
8.60578e-08
-1.63789e-08
1.0963e-07
-6.22439e-08
3.22501e-07
-1.34309e-07
5.24325e-07
-2.293e-07
7.11427e-07
-3.43981e-07
8.80945e-07
-4.75172e-07
1.03062e-06
-6.19769e-07
1.15877e-06
-7.7476e-07
1.26425e-06
-9.37247e-07
1.34644e-06
-1.10445e-06
1.40513e-06
-1.27375e-06
1.4405e-06
-1.44265e-06
1.45308e-06
-1.60883e-06
1.44362e-06
-1.77013e-06
1.41315e-06
-1.92457e-06
1.36283e-06
-2.07033e-06
1.294e-06
-2.20574e-06
1.20809e-06
-2.32935e-06
1.10661e-06
-2.43981e-06
9.91154e-07
-2.53599e-06
8.63346e-07
-2.61688e-06
7.24865e-07
-2.68165e-06
5.77422e-07
-2.72961e-06
4.22764e-07
-2.76023e-06
2.62671e-07
9.89622e-08
-1.75756e-08
1.27206e-07
-6.67548e-08
3.7168e-07
-1.43948e-07
6.01518e-07
-2.45569e-07
8.13048e-07
-3.68069e-07
1.00345e-06
-5.0797e-07
1.17052e-06
-6.6189e-07
1.31268e-06
-8.26564e-07
1.42893e-06
-9.98871e-07
1.51875e-06
-1.17585e-06
1.5821e-06
-1.3547e-06
1.61936e-06
-1.53281e-06
1.63119e-06
-1.70777e-06
1.61858e-06
-1.87733e-06
1.58271e-06
-2.03945e-06
1.52495e-06
-2.19228e-06
1.44683e-06
-2.33414e-06
1.34996e-06
-2.46355e-06
1.23602e-06
-2.57919e-06
1.10679e-06
-2.67989e-06
9.6405e-07
-2.76467e-06
8.09645e-07
-2.83269e-06
6.45441e-07
-2.88326e-06
4.73335e-07
-2.91585e-06
2.95258e-07
1.13177e-07
-1.87924e-08
1.45998e-07
-7.1332e-08
4.2422e-07
-1.53714e-07
6.839e-07
-2.62027e-07
9.2136e-07
-3.924e-07
1.13382e-06
-5.41046e-07
1.31917e-06
-7.04296e-07
1.47593e-06
-8.78627e-07
1.60326e-06
-1.06069e-06
1.70081e-06
-1.24733e-06
1.76874e-06
-1.43558e-06
1.80761e-06
-1.62272e-06
1.81833e-06
-1.80622e-06
1.80208e-06
-1.98378e-06
1.76027e-06
-2.15331e-06
1.69448e-06
-2.31293e-06
1.60645e-06
-2.46096e-06
1.49799e-06
-2.59591e-06
1.37097e-06
-2.71647e-06
1.22735e-06
-2.8215e-06
1.06908e-06
-2.91002e-06
8.98161e-07
-2.98119e-06
7.16615e-07
-3.03434e-06
5.26486e-07
-3.06893e-06
3.29847e-07
1.28807e-07
-2.00377e-08
1.66036e-07
-7.6004e-08
4.80186e-07
-1.63661e-07
7.71557e-07
-2.78754e-07
1.03645e-06
-4.17077e-07
1.27214e-06
-5.74519e-07
1.47661e-06
-7.47112e-07
1.64853e-06
-9.31064e-07
1.78721e-06
-1.12279e-06
1.89254e-06
-1.31894e-06
1.96489e-06
-1.51641e-06
2.00507e-06
-1.71231e-06
2.01424e-06
-1.90406e-06
1.99382e-06
-2.08929e-06
1.94549e-06
-2.26587e-06
1.87107e-06
-2.43192e-06
1.7725e-06
-2.58575e-06
1.65182e-06
-2.7259e-06
1.51112e-06
-2.85107e-06
1.35252e-06
-2.96016e-06
1.17816e-06
-3.0522e-06
9.902e-07
-3.12638e-06
7.908e-07
-3.18204e-06
5.82148e-07
-3.21865e-06
3.6645e-07
1.45945e-07
-2.13196e-08
1.87355e-07
-8.07981e-08
5.39664e-07
-1.73841e-07
8.646e-07
-2.9583e-07
1.15844e-06
-4.42199e-07
1.41851e-06
-6.08497e-07
1.64291e-06
-7.90442e-07
1.83047e-06
-9.83963e-07
1.98073e-06
-1.18524e-06
2.09381e-06
-1.39071e-06
2.17036e-06
-1.59711e-06
2.21147e-06
-1.80145e-06
2.21859e-06
-2.00106e-06
2.19343e-06
-2.19353e-06
2.13795e-06
-2.3767e-06
2.05424e-06
-2.5487e-06
1.9445e-06
-2.70787e-06
1.81099e-06
-2.85277e-06
1.65602e-06
-2.98215e-06
1.4819e-06
-3.09494e-06
1.29095e-06
-3.19021e-06
1.08547e-06
-3.2672e-06
8.67786e-07
-3.32525e-06
6.402e-07
-3.36384e-06
4.05043e-07
1.64671e-07
-2.2646e-08
2.10001e-07
-8.57415e-08
6.0276e-07
-1.84306e-07
9.63165e-07
-3.13328e-07
1.28746e-06
-4.67857e-07
1.57304e-06
-6.43077e-07
1.81813e-06
-8.34373e-07
2.02177e-06
-1.03738e-06
2.18374e-06
-1.24803e-06
2.30446e-06
-1.46256e-06
2.38489e-06
-1.67754e-06
2.42646e-06
-1.8899e-06
2.43095e-06
-2.09688e-06
2.40041e-06
-2.29603e-06
2.3371e-06
-2.48521e-06
2.24342e-06
-2.66256e-06
2.12185e-06
-2.82647e-06
1.9749e-06
-2.97555e-06
1.8051e-06
-3.10861e-06
1.61496e-06
-3.22463e-06
1.40697e-06
-3.32276e-06
1.1836e-06
-3.40226e-06
9.47288e-07
-3.46252e-06
7.00463e-07
-3.50304e-06
4.45562e-07
1.85039e-07
-2.40251e-08
2.34026e-07
-9.08623e-08
6.69597e-07
-1.9511e-07
1.06741e-06
-3.31326e-07
1.42368e-06
-4.94143e-07
1.73586e-06
-6.78351e-07
2.00234e-06
-8.7898e-07
2.2224e-06
-1.09135e-06
2.39611e-06
-1.31114e-06
2.52425e-06
-1.53439e-06
2.60813e-06
-1.75751e-06
2.64959e-06
-1.97733e-06
2.65077e-06
-2.19103e-06
2.61411e-06
-2.39617e-06
2.54224e-06
-2.59062e-06
2.43788e-06
-2.77257e-06
2.3038e-06
-2.94047e-06
2.1428e-06
-3.09301e-06
1.95764e-06
-3.22908e-06
1.75103e-06
-3.34776e-06
1.52565e-06
-3.44824e-06
1.28409e-06
-3.52987e-06
1.02892e-06
-3.59209e-06
7.6268e-07
-3.63441e-06
4.87886e-07
2.07072e-07
-2.54661e-08
2.59492e-07
-9.61916e-08
7.40323e-07
-2.06309e-07
1.17753e-06
-3.49905e-07
1.56728e-06
-5.21151e-07
1.9071e-06
-7.1441e-07
2.19559e-06
-9.24326e-07
2.43231e-06
-1.1459e-06
2.61768e-06
-1.37452e-06
2.75287e-06
-1.60603e-06
2.83964e-06
-1.83671e-06
2.88027e-06
-2.06329e-06
2.87735e-06
-2.28293e-06
2.83375e-06
-2.49318e-06
2.75249e-06
-2.69198e-06
2.63668e-06
-2.87759e-06
2.48941e-06
-3.04855e-06
2.31376e-06
-3.20365e-06
2.11275e-06
-3.34191e-06
1.88929e-06
-3.4625e-06
1.64623e-06
-3.56471e-06
1.3863e-06
-3.64798e-06
1.11219e-06
-3.7118e-06
8.26501e-07
-3.75574e-06
5.31826e-07
2.3075e-07
-2.69797e-08
2.86472e-07
-1.01765e-07
8.15108e-07
-2.17971e-07
1.29374e-06
-3.69158e-07
1.71846e-06
-5.48987e-07
2.08693e-06
-7.5135e-07
2.39796e-06
-9.70472e-07
2.65143e-06
-1.201e-06
2.84821e-06
-1.43805e-06
2.98992e-06
-1.67725e-06
3.07885e-06
-1.91475e-06
3.11777e-06
-2.14722e-06
3.10981e-06
-2.3718e-06
3.05833e-06
-2.58609e-06
2.96679e-06
-2.78811e-06
2.8387e-06
-2.97623e-06
2.67752e-06
-3.14911e-06
2.48664e-06
-3.30569e-06
2.26933e-06
-3.44512e-06
2.02872e-06
-3.5667e-06
1.76781e-06
-3.66987e-06
1.48947e-06
-3.75415e-06
1.19647e-06
-3.81912e-06
8.91471e-07
-3.8644e-06
5.77112e-07
2.56001e-07
-2.8579e-08
3.15051e-07
-1.07626e-07
8.94155e-07
-2.30175e-07
1.41628e-06
-3.89193e-07
1.87748e-06
-5.77772e-07
2.27551e-06
-7.89277e-07
2.60946e-06
-1.01748e-06
2.87964e-06
-1.25664e-06
3.08737e-06
-1.50159e-06
3.23487e-06
-1.74775e-06
3.32501e-06
-1.99116e-06
3.36118e-06
-2.22843e-06
3.34708e-06
-2.45674e-06
3.28664e-06
-2.67376e-06
3.18381e-06
-2.87762e-06
3.04256e-06
-3.06684e-06
2.86674e-06
-3.24026e-06
2.66006e-06
-3.397e-06
2.42607e-06
-3.53637e-06
2.16809e-06
-3.65784e-06
1.88929e-06
-3.76101e-06
1.59264e-06
-3.84552e-06
1.28098e-06
-3.91106e-06
9.57011e-07
-3.95732e-06
6.2338e-07
2.82686e-07
-3.02802e-08
3.45331e-07
-1.13829e-07
9.77704e-07
-2.43019e-07
1.54547e-06
-4.10145e-07
2.04461e-06
-6.07653e-07
2.47302e-06
-8.28321e-07
2.83013e-06
-1.06541e-06
3.11673e-06
-1.31278e-06
3.33474e-06
-1.56496e-06
3.48704e-06
-1.81717e-06
3.57722e-06
-2.06534e-06
3.60935e-06
-2.30609e-06
3.58783e-06
-2.53663e-06
3.51718e-06
-2.75478e-06
3.40196e-06
-2.95883e-06
3.2466e-06
-3.14748e-06
3.05539e-06
-3.3198e-06
2.83238e-06
-3.47511e-06
2.58138e-06
-3.61295e-06
2.30593e-06
-3.733e-06
2.00933e-06
-3.83501e-06
1.69466e-06
-3.91881e-06
1.36477e-06
-3.9842e-06
1.0224e-06
-4.03097e-06
6.70154e-07
3.1059e-07
-3.21039e-08
3.77435e-07
-1.2044e-07
1.06604e-06
-2.56626e-07
1.68166e-06
-4.32181e-07
2.22016e-06
-6.38813e-07
2.67965e-06
-8.68636e-07
3.05995e-06
-1.11435e-06
3.36244e-06
-1.36938e-06
3.58977e-06
-1.62793e-06
3.74559e-06
-1.88505e-06
3.83434e-06
-2.13659e-06
3.86089e-06
-2.37918e-06
3.83042e-06
-2.61017e-06
3.74817e-06
-2.82753e-06
3.61932e-06
-3.02978e-06
3.44885e-06
-3.21588e-06
3.24149e-06
-3.38514e-06
3.00165e-06
-3.53717e-06
2.73341e-06
-3.67175e-06
2.44051e-06
-3.7888e-06
2.12639e-06
-3.88831e-06
1.79416e-06
-3.97026e-06
1.44673e-06
-4.03463e-06
1.08677e-06
-4.08131e-06
7.16839e-07
3.39407e-07
-3.40768e-08
4.11512e-07
-1.27548e-07
1.15951e-06
-2.71152e-07
1.82526e-06
-4.55509e-07
2.40452e-06
-6.71477e-07
2.89562e-06
-9.10413e-07
3.29889e-06
-1.1644e-06
3.61642e-06
-1.42637e-06
3.85174e-06
-1.69022e-06
4.00945e-06
-1.95083e-06
4.09495e-06
-2.20402e-06
4.11408e-06
-2.44649e-06
4.0729e-06
-2.67577e-06
3.97745e-06
-2.89007e-06
3.83361e-06
-3.08817e-06
3.64696e-06
-3.26937e-06
3.42268e-06
-3.4333e-06
3.16557e-06
-3.57987e-06
2.87998e-06
-3.70917e-06
2.56982e-06
-3.82141e-06
2.23863e-06
-3.91682e-06
1.88957e-06
-3.99561e-06
1.52551e-06
-4.05792e-06
1.14907e-06
-4.10378e-06
7.62701e-07
3.6873e-07
-3.62332e-08
4.47745e-07
-1.35264e-07
1.25854e-06
-2.86796e-07
1.9768e-06
-4.80397e-07
2.59812e-06
-7.05929e-07
3.12115e-06
-9.53887e-07
3.54685e-06
-1.21565e-06
3.87818e-06
-1.48365e-06
4.11973e-06
-1.75146e-06
4.27726e-06
-2.01382e-06
4.3573e-06
-2.26656e-06
4.36682e-06
-2.50655e-06
4.31289e-06
-2.73155e-06
4.20245e-06
-2.94008e-06
4.04214e-06
-3.1313e-06
3.83818e-06
-3.30487e-06
3.59625e-06
-3.46082e-06
3.32152e-06
-3.59943e-06
3.01859e-06
-3.72114e-06
2.69154e-06
-3.82649e-06
2.34397e-06
-3.91598e-06
1.97906e-06
-3.99006e-06
1.5996e-06
-4.04909e-06
1.20811e-06
-4.09326e-06
8.06867e-07
3.98041e-07
-3.86182e-08
4.86363e-07
-1.43731e-07
1.36366e-06
-3.03814e-07
2.13688e-06
-5.07178e-07
2.80149e-06
-7.42521e-07
3.35649e-06
-9.99339e-07
3.80367e-06
-1.26823e-06
4.14707e-06
-1.54108e-06
4.39259e-06
-1.81117e-06
4.54735e-06
-2.07313e-06
4.61927e-06
-2.3229e-06
4.61659e-06
-2.55757e-06
4.54756e-06
-2.77524e-06
4.42012e-06
-2.97484e-06
4.24175e-06
-3.15598e-06
4.01932e-06
-3.31879e-06
3.75905e-06
-3.46373e-06
3.46646e-06
-3.59152e-06
3.14638e-06
-3.70302e-06
2.80304e-06
-3.79911e-06
2.44006e-06
-3.88061e-06
2.06056e-06
-3.94826e-06
1.66725e-06
-4.00263e-06
1.26247e-06
-4.04408e-06
8.48313e-07
4.26702e-07
-4.12905e-08
5.27654e-07
-1.53137e-07
1.4755e-06
-3.22531e-07
2.30627e-06
-5.36275e-07
3.01523e-06
-7.81685e-07
3.6019e-06
-1.0471e-06
4.06908e-06
-1.32225e-06
4.42222e-06
-1.59846e-06
4.6688e-06
-1.86872e-06
4.81761e-06
-2.12766e-06
4.8782e-06
-2.37139e-06
4.86032e-06
-2.59735e-06
4.77352e-06
-2.8041e-06
4.62687e-06
-2.99109e-06
4.42874e-06
-3.15848e-06
4.18671e-06
-3.30692e-06
3.9075e-06
-3.43743e-06
3.59697e-06
-3.55121e-06
3.26017e-06
-3.64957e-06
2.90139e-06
-3.73376e-06
2.52426e-06
-3.80499e-06
2.13179e-06
-3.86427e-06
1.72653e-06
-3.91241e-06
1.31061e-06
-3.94997e-06
8.85873e-07
4.53955e-07
-4.4327e-08
5.71981e-07
-1.63724e-07
1.5949e-06
-3.43363e-07
2.48591e-06
-5.68215e-07
3.24008e-06
-8.23946e-07
3.85763e-06
-1.09756e-06
4.34269e-06
-1.37781e-06
4.70247e-06
-1.65545e-06
4.94644e-06
-1.92325e-06
5.08542e-06
-2.17593e-06
5.13088e-06
-2.40992e-06
5.09431e-06
-2.62316e-06
4.98676e-06
-2.81479e-06
4.8185e-06
-2.98491e-06
4.59886e-06
-3.13434e-06
4.33614e-06
-3.26438e-06
4.03754e-06
-3.37664e-06
3.70922e-06
-3.47287e-06
3.35639e-06
-3.55484e-06
2.98337e-06
-3.62428e-06
2.59369e-06
-3.68273e-06
2.19024e-06
-3.73152e-06
1.77532e-06
-3.77172e-06
1.35081e-06
-3.80409e-06
9.18245e-07
4.78926e-07
-4.78293e-08
6.1981e-07
-1.75806e-07
1.72288e-06
-3.66842e-07
2.67695e-06
-6.03655e-07
3.47689e-06
-8.69927e-07
4.12391e-06
-1.1511e-06
4.62387e-06
-1.43489e-06
4.98626e-06
-1.71148e-06
5.22303e-06
-1.97354e-06
5.34747e-06
-2.216e-06
5.37334e-06
-2.43581e-06
5.31412e-06
-2.63157e-06
5.18252e-06
-2.8032e-06
4.99012e-06
-2.95159e-06
4.74725e-06
-3.07833e-06
4.46288e-06
-3.18546e-06
4.14467e-06
-3.27525e-06
3.79902e-06
-3.35007e-06
3.43121e-06
-3.41219e-06
3.0455e-06
-3.46379e-06
2.64529e-06
-3.50679e-06
2.23323e-06
-3.54284e-06
1.81137e-06
-3.57327e-06
1.38123e-06
-3.59904e-06
9.44018e-07
5.00635e-07
-5.19325e-08
6.71743e-07
-1.89792e-07
1.86074e-06
-3.93644e-07
2.8808e-06
-6.43401e-07
3.72665e-06
-9.2035e-07
4.40086e-06
-1.20814e-06
4.91166e-06
-1.49336e-06
5.27148e-06
-1.76569e-06
5.49536e-06
-2.01785e-06
5.59963e-06
-2.24524e-06
5.60073e-06
-2.44554e-06
5.51442e-06
-2.61824e-06
5.35522e-06
-2.76423e-06
5.13611e-06
-2.88537e-06
4.86839e-06
-2.98415e-06
4.56166e-06
-3.06344e-06
4.22395e-06
-3.12623e-06
3.86181e-06
-3.17552e-06
3.48049e-06
-3.21413e-06
3.08411e-06
-3.24467e-06
2.67584e-06
-3.26945e-06
2.25801e-06
-3.29042e-06
1.83234e-06
-3.30917e-06
1.39998e-06
-3.32686e-06
9.61708e-07
5.18022e-07
-5.68172e-08
7.2856e-07
-2.06221e-07
2.01014e-06
-4.24629e-07
3.09921e-06
-6.88434e-07
3.99046e-06
-9.76018e-07
4.68844e-06
-1.26898e-06
5.20462e-06
-1.55273e-06
5.55523e-06
-1.81664e-06
5.75926e-06
-2.05369e-06
5.83669e-06
-2.26007e-06
5.80711e-06
-2.43449e-06
5.68884e-06
-2.57763e-06
5.49836e-06
-2.69156e-06
5.25005e-06
-2.77928e-06
4.95611e-06
-2.84432e-06
4.62671e-06
-2.89045e-06
4.27008e-06
-2.92145e-06
3.8928e-06
-2.94093e-06
3.49998e-06
-2.95228e-06
3.09546e-06
-2.95851e-06
2.68207e-06
-2.96229e-06
2.26179e-06
-2.96585e-06
1.8359e-06
-2.971e-06
1.40513e-06
-2.9791e-06
9.69812e-07
5.29981e-07
-6.27285e-08
7.91288e-07
-2.25801e-07
2.17321e-06
-4.6089e-07
3.3343e-06
-7.39926e-07
4.26949e-06
-1.03777e-06
4.98628e-06
-1.3337e-06
5.50056e-06
-1.61205e-06
5.83358e-06
-1.86207e-06
6.00929e-06
-2.07746e-06
6.05208e-06
-2.25557e-06
5.98522e-06
-2.39656e-06
5.82982e-06
-2.5026e-06
5.6044e-06
-2.57723e-06
5.32467e-06
-2.62476e-06
5.00364e-06
-2.64986e-06
4.65181e-06
-2.65727e-06
4.27749e-06
-2.65154e-06
3.88708e-06
-2.63694e-06
3.48537e-06
-2.61731e-06
3.07583e-06
-2.59608e-06
2.66084e-06
-2.57619e-06
2.2419e-06
-2.56012e-06
1.81982e-06
-2.54986e-06
1.39486e-06
-2.54692e-06
9.66878e-07
5.35415e-07
-7.00042e-08
8.61293e-07
-2.49477e-07
2.35268e-06
-5.03817e-07
3.58864e-06
-7.99244e-07
4.56492e-06
-1.10637e-06
5.29341e-06
-1.40197e-06
5.79615e-06
-1.66945e-06
6.10106e-06
-1.89846e-06
6.2383e-06
-2.08394e-06
6.23756e-06
-2.22497e-06
6.12624e-06
-2.32363e-06
5.92848e-06
-2.38399e-06
5.66476e-06
-2.41129e-06
5.35198e-06
-2.41134e-06
5.00368e-06
-2.39003e-06
4.6305e-06
-2.35307e-06
4.24053e-06
-2.30577e-06
3.83978e-06
-2.25296e-06
3.43256e-06
-2.19891e-06
3.02178e-06
-2.14733e-06
2.60926e-06
-2.10138e-06
2.19596e-06
-2.06371e-06
1.78215e-06
-2.03642e-06
1.36758e-06
-2.02115e-06
9.51605e-07
5.33296e-07
-7.91188e-08
9.40411e-07
-2.78517e-07
2.55208e-06
-5.55157e-07
3.86528e-06
-8.6791e-07
4.87767e-06
-1.18232e-06
5.60782e-06
-1.47259e-06
6.08642e-06
-1.72168e-06
6.35015e-06
-1.92034e-06
6.43697e-06
-2.06557e-06
6.38279e-06
-2.1589e-06
6.21957e-06
-2.20491e-06
5.97448e-06
-2.20996e-06
5.66981e-06
-2.18126e-06
5.32328e-06
-2.12623e-06
4.94865e-06
-2.05201e-06
4.55628e-06
-1.96522e-06
4.15375e-06
-1.87185e-06
3.74641e-06
-1.77716e-06
3.33787e-06
-1.68572e-06
2.93033e-06
-1.60141e-06
2.52495e-06
-1.5275e-06
2.12205e-06
-1.46668e-06
1.72133e-06
-1.42111e-06
1.32201e-06
-1.39245e-06
9.2295e-07
5.22756e-07
-9.07553e-08
1.03117e-06
-3.14649e-07
2.77598e-06
-6.17093e-07
4.16772e-06
-9.47479e-07
5.20806e-06
-1.26546e-06
5.92581e-06
-1.5429e-06
6.36385e-06
-1.76319e-06
6.57044e-06
-1.91935e-06
6.59312e-06
-2.01148e-06
6.47492e-06
-2.04448e-06
6.25258e-06
-2.02607e-06
5.95608e-06
-1.96531e-06
5.60905e-06
-1.87158e-06
5.22955e-06
-1.75391e-06
4.83098e-06
-1.62061e-06
4.42299e-06
-1.47911e-06
4.01225e-06
-1.33587e-06
3.60317e-06
-1.19642e-06
3.19842e-06
-1.06542e-06
2.79934e-06
-9.46783e-07
2.40631e-06
-8.43712e-07
2.01898e-06
-7.58831e-07
1.63645e-06
-6.94234e-07
1.25741e-06
-6.51548e-07
8.80264e-07
5.03179e-07
-1.05926e-07
1.13709e-06
-3.60242e-07
3.03029e-06
-6.92281e-07
4.49976e-06
-1.03924e-06
5.55502e-06
-1.35426e-06
6.24082e-06
-1.60767e-06
6.61726e-06
-1.78488e-06
6.74765e-06
-1.88279e-06
6.69103e-06
-1.90608e-06
6.49822e-06
-1.86406e-06
6.21056e-06
-1.76824e-06
5.86025e-06
-1.63067e-06
5.47148e-06
-1.46294e-06
5.06183e-06
-1.27563e-06
4.64367e-06
-1.078e-06
4.22535e-06
-8.77986e-07
3.81224e-06
-6.82271e-07
3.40746e-06
-4.9638e-07
3.01252e-06
-3.24848e-07
2.62781e-06
-1.71368e-07
2.25283e-06
-3.89245e-08
1.88654e-06
7.00847e-08
1.52744e-06
1.53753e-07
1.17374e-06
2.10587e-07
8.23429e-07
4.74308e-07
-1.2618e-07
1.26327e-06
-4.18577e-07
3.32269e-06
-7.83782e-07
4.86496e-06
-1.14356e-06
5.9148e-06
-1.44451e-06
6.54177e-06
-1.65735e-06
6.83011e-06
-1.77202e-06
6.86232e-06
-1.79165e-06
6.71066e-06
-1.72727e-06
6.43384e-06
-1.59368e-06
6.07697e-06
-1.40671e-06
5.67328e-06
-1.18152e-06
5.24628e-06
-9.31743e-07
4.81205e-06
-6.69132e-07
4.38105e-06
-4.03517e-07
3.95974e-06
-1.42952e-07
3.55167e-06
1.06067e-07
3.15844e-06
3.38355e-07
2.78024e-06
5.49809e-07
2.41635e-06
7.37189e-07
2.06545e-06
8.97945e-07
1.72578e-06
1.03007e-06
1.39532e-06
1.13197e-06
1.07184e-06
1.20239e-06
7.5301e-07
4.36354e-07
-1.53969e-07
1.41724e-06
-4.94177e-07
3.6629e-06
-8.94691e-07
5.26548e-06
-1.25844e-06
6.27856e-06
-1.527e-06
6.81032e-06
-1.67516e-06
6.97827e-06
-1.70126e-06
6.88843e-06
-1.61779e-06
6.62718e-06
-1.44402e-06
6.26007e-06
-1.20121e-06
5.83416e-06
-9.09682e-07
5.38175e-06
-5.87425e-07
4.92403e-06
-2.49575e-07
4.4742e-06
9.15591e-08
4.03992e-06
4.26217e-07
3.62508e-06
7.46803e-07
3.23109e-06
1.04749e-06
2.85775e-06
1.32386e-06
2.50387e-06
1.57257e-06
2.16764e-06
1.7911e-06
1.84692e-06
1.97756e-06
1.53933e-06
2.13048e-06
1.2424e-06
2.24871e-06
9.53608e-07
2.33134e-06
6.70378e-07
3.90095e-07
-1.93275e-07
1.61052e-06
-5.93109e-07
4.06273e-06
-1.02696e-06
5.69933e-06
-1.37665e-06
6.62825e-06
-1.58333e-06
7.017e-06
-1.63241e-06
7.02735e-06
-1.53621e-06
6.79222e-06
-1.32012e-06
6.41109e-06
-1.01347e-06
5.95342e-06
-6.44297e-07
5.46499e-06
-2.36956e-07
4.97441e-06
1.88652e-07
4.49842e-06
6.16915e-07
4.04594e-06
1.03595e-06
3.62088e-06
1.43695e-06
3.22408e-06
1.8135e-06
2.85454e-06
2.16101e-06
2.51023e-06
2.47629e-06
2.18859e-06
2.75709e-06
1.88684e-06
3.00189e-06
1.60212e-06
3.20963e-06
1.33159e-06
3.37953e-06
1.0725e-06
3.51101e-06
8.22126e-07
3.60357e-06
5.77822e-07
3.36955e-07
-2.50655e-07
1.86117e-06
-7.22826e-07
4.5349e-06
-1.17828e-06
6.15479e-06
-1.4798e-06
6.92976e-06
-1.57865e-06
7.11584e-06
-1.48128e-06
6.92999e-06
-1.2211e-06
6.53203e-06
-8.39869e-07
6.02987e-06
-3.77679e-07
5.49123e-06
1.31496e-07
4.95582e-06
6.60877e-07
4.44503e-06
1.19039e-06
3.9689e-06
1.70558e-06
3.53076e-06
2.19633e-06
3.13012e-06
2.65587e-06
2.76455e-06
3.07978e-06
2.43064e-06
3.46533e-06
2.12468e-06
3.81094e-06
1.84298e-06
4.11581e-06
1.58197e-06
4.3796e-06
1.33833e-06
4.60222e-06
1.10898e-06
4.7837e-06
8.91018e-07
4.92407e-06
6.81749e-07
5.02331e-06
4.78586e-07
2.79028e-07
-3.3675e-07
2.19792e-06
-8.90164e-07
5.08832e-06
-1.33436e-06
6.59898e-06
-1.52675e-06
7.12215e-06
-1.44911e-06
7.0382e-06
-1.14377e-06
6.62465e-06
-6.72512e-07
6.06077e-06
-9.508e-08
5.45243e-06
5.39347e-07
4.8568e-06
1.19382e-06
4.30135e-06
1.84225e-06
3.7966e-06
2.46714e-06
3.34401e-06
3.05733e-06
2.94056e-06
3.60616e-06
2.5813e-06
4.10999e-06
2.26072e-06
4.56719e-06
1.97343e-06
4.97741e-06
1.71446e-06
5.34104e-06
1.47935e-06
5.65887e-06
1.26414e-06
5.93185e-06
1.06535e-06
6.16094e-06
8.79885e-07
6.34699e-06
7.04965e-07
6.49067e-06
5.38066e-07
6.59242e-06
3.76841e-07
2.19056e-07
-4.67157e-07
2.66508e-06
-1.09302e-06
5.71418e-06
-1.45056e-06
6.95652e-06
-1.43127e-06
7.10286e-06
-1.0815e-06
6.68843e-06
-4.96344e-07
6.0395e-06
2.30367e-07
5.33406e-06
1.0243e-06
4.6585e-06
1.83308e-06
4.04803e-06
2.62265e-06
3.51178e-06
3.37245e-06
3.0468e-06
4.07113e-06
2.64533e-06
4.7133e-06
2.29839e-06
5.2973e-06
1.99731e-06
5.82361e-06
1.7344e-06
6.29397e-06
1.50308e-06
6.71063e-06
1.2978e-06
7.07607e-06
1.11391e-06
7.39269e-06
9.47528e-07
7.66268e-06
7.95357e-07
7.88798e-06
6.54585e-07
8.07018e-06
5.2277e-07
8.2105e-06
3.97744e-07
8.3098e-06
2.77537e-07
1.60308e-07
-6.56502e-07
3.32158e-06
-1.2924e-06
6.35008e-06
-1.41006e-06
7.07418e-06
-1.02127e-06
6.71407e-06
-2.82521e-07
5.94968e-06
6.48741e-07
5.10824e-06
1.6543e-06
4.32851e-06
2.65792e-06
3.65488e-06
3.61578e-06
3.09017e-06
4.50559e-06
2.62196e-06
5.31827e-06
2.23412e-06
6.05226e-06
1.91135e-06
6.71e-06
1.64065e-06
7.29584e-06
1.41146e-06
7.81484e-06
1.2154e-06
8.27207e-06
1.04585e-06
8.67231e-06
8.97558e-07
9.01985e-06
7.6637e-07
9.31845e-06
6.48929e-07
9.57131e-06
5.42497e-07
9.78109e-06
4.44804e-07
9.94993e-06
3.53929e-07
1.00795e-05
2.68203e-07
1.01709e-05
1.86139e-07
1.06366e-07
-8.8803e-07
4.20961e-06
-1.33348e-06
6.79554e-06
-9.35243e-07
6.67594e-06
2.92385e-08
5.74959e-06
1.26092e-06
4.71801e-06
2.55959e-06
3.80956e-06
3.81286e-06
3.07523e-06
4.96783e-06
2.49991e-06
6.00609e-06
2.05191e-06
6.92702e-06
1.70103e-06
7.73803e-06
1.4231e-06
8.44953e-06
1.19985e-06
9.07233e-06
1.01785e-06
9.61653e-06
8.67258e-07
1.00911e-05
7.40834e-07
1.05037e-05
6.33196e-07
1.0861e-05
5.40285e-07
1.11684e-05
4.58996e-07
1.14304e-05
3.86911e-07
1.16508e-05
3.22109e-07
1.18326e-05
2.63037e-07
1.19781e-05
2.08407e-07
1.20892e-05
1.57118e-07
1.21671e-05
1.08208e-07
6.07974e-08
-1.01533e-06
5.22494e-06
-7.47875e-07
6.52808e-06
5.83975e-07
5.34409e-06
2.29991e-06
4.03366e-06
4.01952e-06
2.99839e-06
5.58467e-06
2.2444e-06
6.94881e-06
1.7111e-06
8.11554e-06
1.33319e-06
9.10702e-06
1.06042e-06
9.94934e-06
8.58715e-07
1.06667e-05
7.05751e-07
1.12796e-05
5.86913e-07
1.1805e-05
4.92502e-07
1.22563e-05
4.15958e-07
1.26444e-05
3.52739e-07
1.29779e-05
2.99628e-07
1.32639e-05
2.5429e-07
1.35079e-05
2.14991e-07
1.37144e-05
1.80418e-07
1.3887e-05
1.49549e-07
1.40285e-05
1.21571e-07
1.4141e-05
9.58212e-08
1.42264e-05
7.17437e-08
1.42858e-05
4.88547e-08
2.6719e-08
-2.34978e-07
5.45992e-06
1.80398e-06
4.48912e-06
4.40145e-06
2.74661e-06
6.72175e-06
1.71336e-06
8.60683e-06
1.11332e-06
1.00972e-05
7.53983e-07