/*--------------------------------*- C++ -*----------------------------------*\
| =========                 |                                                 |
| \\      /  F ield         | OpenFOAM: The Open Source CFD Toolbox           |
|  \\    /   O peration     | Version:  v2012                                 |
|   \\  /    A nd           | Website:  www.openfoam.com                      |
|    \\/     M anipulation  |                                                 |
\*---------------------------------------------------------------------------*/
FoamFile
{
    version     2.0;
    format      ascii;
    class       volVectorField;
    location    "0.4";
    object      U;
}
// * * * * * * * * * * * * * * * * * * * * * * * * * * * * * * * * * * * * * //

dimensions      [0 1 -1 0 0 0 0];


internalField   nonuniform List<vector> 
1250
(
(3.26597e-05 -3.28293e-05 0)
(9.87585e-05 -4.07321e-05 0)
(0.00013732 -2.09861e-05 0)
(0.000106249 7.85393e-06 0)
(-8.73318e-06 3.77377e-05 0)
(-0.000206069 6.53597e-05 0)
(-0.000478418 8.94078e-05 0)
(-0.000815957 0.000109469 0)
(-0.00120774 0.000125519 0)
(-0.0016425 0.000137697 0)
(-0.00210906 0.000146208 0)
(-0.00259665 0.000151283 0)
(-0.00309494 0.000153164 0)
(-0.00359425 0.000152091 0)
(-0.00408551 0.000148304 0)
(-0.00456031 0.000142037 0)
(-0.00501095 0.000133518 0)
(-0.00543042 0.000122971 0)
(-0.00581241 0.000110616 0)
(-0.00615132 9.66717e-05 0)
(-0.00644225 8.1354e-05 0)
(-0.00668105 6.48804e-05 0)
(-0.00686426 4.74707e-05 0)
(-0.00698919 2.93491e-05 0)
(-0.00705393 1.07457e-05 0)
(4.10736e-05 -9.92572e-05 0)
(9.39037e-05 -9.30466e-05 0)
(4.54689e-05 1.44707e-05 0)
(-0.000168789 0.000161857 0)
(-0.000575841 0.000318383 0)
(-0.00117703 0.000468036 0)
(-0.00195999 0.00060249 0)
(-0.00290447 0.000717681 0)
(-0.00398579 0.000811867 0)
(-0.00517704 0.000884588 0)
(-0.00645053 0.000936118 0)
(-0.00777873 0.000967168 0)
(-0.00913482 0.000978716 0)
(-0.0104932 0.000971904 0)
(-0.0118295 0.000947974 0)
(-0.0131212 0.000908231 0)
(-0.0143473 0.000854016 0)
(-0.0154887 0.000786693 0)
(-0.0165281 0.000707643 0)
(-0.0174501 0.000618261 0)
(-0.0182413 0.00051996 0)
(-0.0188904 0.000414169 0)
(-0.0193878 0.000302349 0)
(-0.0197262 0.000185988 0)
(-0.0199005 6.66145e-05 0)
(2.24904e-05 -0.000139335 0)
(-1.00591e-05 -4.58137e-05 0)
(-0.000234145 0.000239614 0)
(-0.000706103 0.000609349 0)
(-0.00145176 0.00100296 0)
(-0.00247265 0.00138409 0)
(-0.00375298 0.0017312 0)
(-0.00526564 0.00203217 0)
(-0.00697654 0.00228066 0)
(-0.00884757 0.00247393 0)
(-0.0108387 0.00261149 0)
(-0.0129093 0.00269436 0)
(-0.0150196 0.0027245 0)
(-0.0171309 0.00270453 0)
(-0.0192064 0.0026375 0)
(-0.0212114 0.00252675 0)
(-0.023114 0.00237582 0)
(-0.0248846 0.0021884 0)
(-0.0264965 0.00196826 0)
(-0.027926 0.00171927 0)
(-0.0291522 0.00144537 0)
(-0.0301575 0.00115058 0)
(-0.0309273 0.000839006 0)
(-0.0314504 0.000514859 0)
(-0.0317188 0.000182448 0)
(-4.90889e-06 -0.00011233 0)
(-0.000153914 0.000164521 0)
(-0.000600245 0.000710413 0)
(-0.00137367 0.00138026 0)
(-0.00248888 0.00208594 0)
(-0.00394327 0.00277007 0)
(-0.00571616 0.00339601 0)
(-0.00777421 0.00394148 0)
(-0.0100758 0.00439374 0)
(-0.012574 0.00474639 0)
(-0.0152192 0.00499732 0)
(-0.0179605 0.00514737 0)
(-0.0207476 0.00519942 0)
(-0.0235312 0.00515773 0)
(-0.0262643 0.00502758 0)
(-0.0289022 0.00481493 0)
(-0.0314035 0.00452623 0)
(-0.03373 0.00416829 0)
(-0.035847 0.00374819 0)
(-0.0377235 0.00327323 0)
(-0.0393326 0.0027509 0)
(-0.0406511 0.00218886 0)
(-0.0416603 0.00159498 0)
(-0.0423453 0.000977293 0)
(-0.0426959 0.000344056 0)
(-3.37001e-05 -3.34527e-06 0)
(-0.000310123 0.000567936 0)
(-0.00100055 0.0014586 0)
(-0.00209856 0.00249815 0)
(-0.00360112 0.00357626 0)
(-0.00549757 0.00461698 0)
(-0.00776024 0.0055692 0)
(-0.0103488 0.00640012 0)
(-0.0132146 0.0070898 0)
(-0.0163031 0.00762741 0)
(-0.0195565 0.0080086 0)
(-0.0229157 0.00823363 0)
(-0.0263216 0.00830609 0)
(-0.0297163 0.00823197 0)
(-0.0330442 0.00801895 0)
(-0.0362524 0.00767601 0)
(-0.0392916 0.00721301 0)
(-0.0421163 0.0066405 0)
(-0.044685 0.00596956 0)
(-0.0469608 0.00521169 0)
(-0.0489114 0.00437872 0)
(-0.0505091 0.00348283 0)
(-0.0517314 0.00253652 0)
(-0.0525607 0.0015526 0)
(-0.0529848 0.000544214 0)
(-6.11732e-05 0.000188489 0)
(-0.000465895 0.0011731 0)
(-0.00140696 0.00249793 0)
(-0.00283843 0.00397748 0)
(-0.00473591 0.00548514 0)
(-0.00707773 0.00692986 0)
(-0.00982708 0.00824788 0)
(-0.0129355 0.00939651 0)
(-0.0163469 0.0103487 0)
(-0.0199996 0.0110891 0)
(-0.0238285 0.0116108 0)
(-0.0277671 0.0119132 0)
(-0.0317489 0.0120007 0)
(-0.0357088 0.0118809 0)
(-0.0395839 0.0115642 0)
(-0.0433145 0.0110629 0)
(-0.0468447 0.0103906 0)
(-0.0501228 0.00956211 0)
(-0.0531018 0.00859313 0)
(-0.0557396 0.00749996 0)
(-0.0579995 0.00629949 0)
(-0.0598499 0.00500913 0)
(-0.0612653 0.00364678 0)
(-0.0622256 0.00223079 0)
(-0.0627168 0.000780016 0)
(-8.65434e-05 0.000459904 0)
(-0.00061582 0.00197889 0)
(-0.00180548 0.00383053 0)
(-0.00357036 0.00582186 0)
(-0.00586324 0.00781529 0)
(-0.00864947 0.00970835 0)
(-0.0118814 0.0114269 0)
(-0.0155013 0.0129199 0)
(-0.0194449 0.0141537 0)
(-0.0236431 0.0151088 0)
(-0.0280239 0.0157759 0)
(-0.032514 0.0161538 0)
(-0.0370404 0.0162476 0)
(-0.0415315 0.0160667 0)
(-0.0459183 0.0156244 0)
(-0.0501353 0.0149365 0)
(-0.0541209 0.014021 0)
(-0.0578183 0.0128973 0)
(-0.0611758 0.0115861 0)
(-0.0641471 0.0101091 0)
(-0.0666916 0.00848884 0)
(-0.0687748 0.00674852 0)
(-0.0703682 0.0049121 0)
(-0.0714499 0.00300413 0)
(-0.0720044 0.00104983 0)
(-0.000109823 0.000806543 0)
(-0.000758285 0.0029798 0)
(-0.00219041 0.00545225 0)
(-0.00428378 0.00802846 0)
(-0.00696823 0.0105641 0)
(-0.0101951 0.0129486 0)
(-0.0139046 0.0151 0)
(-0.0180288 0.0169603 0)
(-0.0224944 0.0184909 0)
(-0.0272247 0.0196685 0)
(-0.0321405 0.0204821 0)
(-0.0371621 0.0209301 0)
(-0.0422102 0.0210186 0)
(-0.0472077 0.0207592 0)
(-0.0520799 0.0201684 0)
(-0.0567564 0.0192658 0)
(-0.0611707 0.0180739 0)
(-0.0652618 0.0166173 0)
(-0.0689739 0.0149222 0)
(-0.0722572 0.013016 0)
(-0.0750679 0.0109273 0)
(-0.0773689 0.00868585 0)
(-0.0791296 0.00632201 0)
(-0.0803261 0.0038671 0)
(-0.0809419 0.00135325 0)
(-0.000131315 0.00122407 0)
(-0.0008935 0.00416875 0)
(-0.00256062 0.0073562 0)
(-0.00497546 0.0105914 0)
(-0.00804556 0.0137264 0)
(-0.0117077 0.0166454 0)
(-0.0158895 0.0192608 0)
(-0.0205116 0.0215099 0)
(-0.0254914 0.0233499 0)
(-0.0307438 0.0247553 0)
(-0.0361824 0.0257137 0)
(-0.041721 0.026224 0)
(-0.0472745 0.0262935 0)
(-0.0527601 0.0259368 0)
(-0.0580985 0.0251734 0)
(-0.0632146 0.0240277 0)
(-0.0680378 0.0225268 0)
(-0.0725035 0.0207008 0)
(-0.0765524 0.0185818 0)
(-0.0801317 0.0162034 0)
(-0.0831952 0.0136008 0)
(-0.0857034 0.0108103 0)
(-0.0876238 0.00786942 0)
(-0.0889312 0.00481654 0)
(-0.0896078 0.00169115 0)
(-0.000151393 0.00170869 0)
(-0.00102247 0.00553873 0)
(-0.00291733 0.00953479 0)
(-0.00564633 0.0135037 0)
(-0.00909561 0.0172961 0)
(-0.0131875 0.0207932 0)
(-0.0178362 0.0239039 0)
(-0.0229507 0.0265622 0)
(-0.0284384 0.0287233 0)
(-0.0342055 0.0303598 0)
(-0.0401582 0.0314597 0)
(-0.0462033 0.0320225 0)
(-0.0522501 0.032058 0)
(-0.0582107 0.0315836 0)
(-0.0640011 0.0306231 0)
(-0.069542 0.0292054 0)
(-0.0747595 0.0273631 0)
(-0.0795855 0.0251321 0)
(-0.083958 0.0225506 0)
(-0.0878217 0.019659 0)
(-0.0911282 0.0164992 0)
(-0.0938361 0.0131146 0)
(-0.0959114 0.00954993 0)
(-0.0973277 0.00585119 0)
(-0.098066 0.00206549 0)
(-0.000170421 0.00225736 0)
(-0.00114651 0.00708366 0)
(-0.0032629 0.011981 0)
(-0.00629953 0.0167587 0)
(-0.0101221 0.0212673 0)
(-0.0146383 0.0253867 0)
(-0.0197493 0.0290242 0)
(-0.0253517 0.0321122 0)
(-0.0313425 0.0346049 0)
(-0.0376187 0.0364752 0)
(-0.0440787 0.0377117 0)
(-0.0506227 0.0383162 0)
(-0.057154 0.0383012 0)
(-0.0635796 0.037688 0)
(-0.0698113 0.036505 0)
(-0.0757661 0.0347864 0)
(-0.0813667 0.0325705 0)
(-0.0865422 0.0298995 0)
(-0.0912284 0.0268182 0)
(-0.0953677 0.0233738 0)
(-0.0989102 0.0196154 0)
(-0.101813 0.0155937 0)
(-0.10404 0.0113611 0)
(-0.105565 0.00697128 0)
(-0.106367 0.00247916 0)
(-0.000188726 0.0028678 0)
(-0.00126698 0.00879873 0)
(-0.00360018 0.0146891 0)
(-0.0069393 0.0203507 0)
(-0.0111303 0.0256348 0)
(-0.0160668 0.0304213 0)
(-0.0216361 0.0346174 0)
(-0.0277228 0.0381555 0)
(-0.0342128 0.0409904 0)
(-0.0409939 0.0430963 0)
(-0.0479562 0.0444638 0)
(-0.054993 0.045098 0)
(-0.0620018 0.0450151 0)
(-0.0688847 0.0442411 0)
(-0.0755493 0.0428098 0)
(-0.081909 0.040761 0)
(-0.0878838 0.0381394 0)
(-0.0934003 0.034994 0)
(-0.0983923 0.0313763 0)
(-0.102801 0.027341 0)
(-0.106574 0.0229443 0)
(-0.109667 0.0182447 0)
(-0.112045 0.0133022 0)
(-0.113679 0.00817819 0)
(-0.114548 0.00293586 0)
(-0.000206596 0.00353849 0)
(-0.00138519 0.0106806 0)
(-0.00393206 0.017655 0)
(-0.00757022 0.0242754 0)
(-0.0121264 0.0303946 0)
(-0.0174801 0.0358935 0)
(-0.0235052 0.0406803 0)
(-0.0300734 0.0446889 0)
(-0.0370598 0.0478761 0)
(-0.0443422 0.0502187 0)
(-0.0518026 0.051711 0)
(-0.0593272 0.052362 0)
(-0.0668076 0.052193 0)
(-0.074141 0.0512356 0)
(-0.0812309 0.0495295 0)
(-0.0879878 0.0471211 0)
(-0.0943289 0.044062 0)
(-0.100179 0.0404081 0)
(-0.10547 0.0362186 0)
(-0.110141 0.0315553 0)
(-0.114141 0.0264823 0)
(-0.117423 0.0210656 0)
(-0.119951 0.0153731 0)
(-0.121695 0.00947412 0)
(-0.122634 0.00343993 0)
(-0.000224275 0.00426858 0)
(-0.00150236 0.0127272 0)
(-0.00426139 0.0208761 0)
(-0.00819688 0.0285304 0)
(-0.0131166 0.0355445 0)
(-0.018886 0.0418011 0)
(-0.0253652 0.0472108 0)
(-0.0324133 0.0517101 0)
(-0.0398936 0.0552593 0)
(-0.0476744 0.0578392 0)
(-0.055629 0.059449 0)
(-0.0636365 0.0601031 0)
(-0.0715825 0.059829 0)
(-0.0793595 0.0586646 0)
(-0.0868674 0.0566567 0)
(-0.0940136 0.0538591 0)
(-0.100713 0.0503306 0)
(-0.106889 0.046135 0)
(-0.112472 0.0413389 0)
(-0.117401 0.0360119 0)
(-0.121622 0.030226 0)
(-0.12509 0.0240549 0)
(-0.127767 0.0175744 0)
(-0.129624 0.0108618 0)
(-0.130637 0.00399627 0)
(-0.000241975 0.00505782 0)
(-0.00161958 0.0149381 0)
(-0.00459077 0.0243517 0)
(-0.00882363 0.0331149 0)
(-0.0141069 0.0410836 0)
(-0.0202919 0.0481433 0)
(-0.0272247 0.0542077 0)
(-0.0347515 0.0592174 0)
(-0.0427239 0.0631374 0)
(-0.0510001 0.0659542 0)
(-0.0594446 0.0676732 0)
(-0.0679295 0.0683157 0)
(-0.0763346 0.0679163 0)
(-0.0845476 0.0665207 0)
(-0.092465 0.0641836 0)
(-0.0999914 0.0609668 0)
(-0.10704 0.0569374 0)
(-0.113533 0.052167 0)
(-0.1194 0.0467305 0)
(-0.12458 0.0407056 0)
(-0.129018 0.0341719 0)
(-0.132669 0.0272111 0)
(-0.135495 0.0199068 0)
(-0.137465 0.0123441 0)
(-0.138557 0.00461007 0)
(-0.000259879 0.00590651 0)
(-0.00173782 0.0173138 0)
(-0.00492263 0.0280826 0)
(-0.00945453 0.0380296 0)
(-0.0151029 0.0470127 0)
(-0.0217046 0.0549203 0)
(-0.0290916 0.0616706 0)
(-0.0370965 0.0672094 0)
(-0.0455591 0.071508 0)
(-0.0543272 0.07456 0)
(-0.0632567 0.0763786 0)
(-0.0722124 0.0769932 0)
(-0.0810682 0.0764472 0)
(-0.0897078 0.0747951 0)
(-0.0980242 0.0721007 0)
(-0.10592 0.0684345 0)
(-0.113307 0.0638725 0)
(-0.120106 0.0584952 0)
(-0.126248 0.0523856 0)
(-0.13167 0.0456298 0)
(-0.136318 0.0383153 0)
(-0.140148 0.0305317 0)
(-0.14312 0.0223702 0)
(-0.145205 0.0139237 0)
(-0.146379 0.00528675 0)
(-0.000278149 0.00681545 0)
(-0.00185798 0.0198561 0)
(-0.00525918 0.0320711 0)
(-0.0100933 0.0432771 0)
(-0.0161098 0.0533338 0)
(-0.0231307 0.0621335 0)
(-0.030973 0.0695997 0)
(-0.0394556 0.0756849 0)
(-0.0484062 0.0803682 0)
(-0.0576619 0.0836519 0)
(-0.0670698 0.0855585 0)
(-0.0764875 0.0861273 0)
(-0.0857836 0.0854118 0)
(-0.0948375 0.0834767 0)
(-0.103539 0.0803959 0)
(-0.11179 0.0762497 0)
(-0.119502 0.0711239 0)
(-0.126594 0.0651079 0)
(-0.132997 0.0582939 0)
(-0.13865 0.050776 0)
(-0.143499 0.04265 0)
(-0.147501 0.0340131 0)
(-0.150617 0.0249639 0)
(-0.152816 0.0156028 0)
(-0.154076 0.00603162 0)
(-0.00029693 0.00778585 0)
(-0.00198088 0.0225678 0)
(-0.00560245 0.0363209 0)
(-0.0107434 0.048861 0)
(-0.0171325 0.0600501 0)
(-0.0245758 0.0697851 0)
(-0.0328751 0.0779957 0)
(-0.041835 0.0846426 0)
(-0.0512704 0.0897144 0)
(-0.0610079 0.0932237 0)
(-0.0708855 0.0952043 0)
(-0.080754 0.0957071 0)
(-0.0904765 0.0947972 0)
(-0.0999288 0.0925511 0)
(-0.108999 0.0890537 0)
(-0.117587 0.0843966 0)
(-0.125604 0.0786757 0)
(-0.13297 0.0719903 0)
(-0.139619 0.0644417 0)
(-0.145488 0.0561326 0)
(-0.150527 0.0471669 0)
(-0.154692 0.0376492 0)
(-0.157945 0.0276854 0)
(-0.160258 0.0173826 0)
(-0.161605 0.00684972 0)
(-0.000316361 0.00881934 0)
(-0.00210728 0.0254529 0)
(-0.00595439 0.040837 0)
(-0.0114082 0.0547865 0)
(-0.0181753 0.0671662 0)
(-0.0260451 0.0778779 0)
(-0.0348034 0.0868591 0)
(-0.0442395 0.0940803 0)
(-0.0541555 0.0995412 0)
(-0.0643668 0.103267 0)
(-0.0747026 0.105305 0)
(-0.0850067 0.105718 0)
(-0.0951375 0.104587 0)
(-0.104968 0.101999 0)
(-0.114384 0.0980541 0)
(-0.123285 0.0928544 0)
(-0.131584 0.0865074 0)
(-0.139202 0.0791228 0)
(-0.146074 0.0708113 0)
(-0.15214 0.0616844 0)
(-0.157352 0.0518538 0)
(-0.161668 0.0414315 0)
(-0.165051 0.0305301 0)
(-0.167473 0.019263 0)
(-0.16891 0.00774546 0)
(-0.000336578 0.00991795 0)
(-0.00223798 0.0285159 0)
(-0.00631695 0.0456254 0)
(-0.0120908 0.06106 0)
(-0.0192425 0.0746872 0)
(-0.0275437 0.0864151 0)
(-0.0367627 0.0961903 0)
(-0.0466732 0.103995 0)
(-0.0570636 0.109842 0)
(-0.0677378 0.113771 0)
(-0.0785165 0.115844 0)
(-0.0892367 0.116142 0)
(-0.0997525 0.114758 0)
(-0.109934 0.111797 0)
(-0.119667 0.107371 0)
(-0.128852 0.101597 0)
(-0.137403 0.0945927 0)
(-0.145243 0.0864802 0)
(-0.15231 0.0773796 0)
(-0.158549 0.0674112 0)
(-0.163913 0.0566943 0)
(-0.168362 0.0453478 0)
(-0.171863 0.0334906 0)
(-0.174388 0.0212419 0)
(-0.175915 0.00872227 0)
(-0.000357724 0.0110841 0)
(-0.00237376 0.0317626 0)
(-0.00669211 0.0506936 0)
(-0.0127945 0.067689 0)
(-0.0203385 0.0826192 0)
(-0.0290762 0.0954001 0)
(-0.0387574 0.105989 0)
(-0.049139 0.114381 0)
(-0.0599949 0.120606 0)
(-0.0711179 0.12472 0)
(-0.0823193 0.126804 0)
(-0.0934303 0.126954 0)
(-0.104301 0.125284 0)
(-0.114801 0.121914 0)
(-0.124815 0.116972 0)
(-0.134246 0.11059 0)
(-0.14301 0.102898 0)
(-0.151036 0.0940306 0)
(-0.158264 0.0841172 0)
(-0.164643 0.0732868 0)
(-0.170131 0.0616665 0)
(-0.174692 0.0493816 0)
(-0.178294 0.0365563 0)
(-0.180913 0.0233149 0)
(-0.182527 0.0097822 0)
(-0.00037996 0.0123206 0)
(-0.00251553 0.0351999 0)
(-0.00708208 0.0560504 0)
(-0.013523 0.0746819 0)
(-0.0214679 0.0909691 0)
(-0.0306476 0.104836 0)
(-0.0407917 0.116253 0)
(-0.0516391 0.125232 0)
(-0.0629487 0.131821 0)
(-0.0745013 0.136095 0)
(-0.0860997 0.138157 0)
(-0.0975694 0.138124 0)
(-0.108758 0.136129 0)
(-0.119533 0.132311 0)
(-0.129783 0.126816 0)
(-0.139413 0.119791 0)
(-0.148344 0.111383 0)
(-0.156509 0.101734 0)
(-0.163855 0.0909868 0)
(-0.170335 0.0792784 0)
(-0.175913 0.0667428 0)
(-0.180557 0.053511 0)
(-0.18424 0.0397122 0)
(-0.186939 0.0254742 0)
(-0.188634 0.0109255 0)
(-0.000403475 0.0136309 0)
(-0.00266432 0.0388355 0)
(-0.00748942 0.0617057 0)
(-0.0142803 0.0820489 0)
(-0.0226358 0.0997441 0)
(-0.0322632 0.114726 0)
(-0.0428698 0.126981 0)
(-0.0541752 0.136538 0)
(-0.0659225 0.143468 0)
(-0.0778801 0.147871 0)
(-0.0898426 0.149872 0)
(-0.101631 0.149612 0)
(-0.11309 0.147248 0)
(-0.124089 0.14294 0)
(-0.134519 0.136852 0)
(-0.144291 0.12915 0)
(-0.15333 0.119994 0)
(-0.161579 0.109541 0)
(-0.168989 0.0979429 0)
(-0.175522 0.085345 0)
(-0.181147 0.0718881 0)
(-0.185839 0.0577083 0)
(-0.189575 0.0429383 0)
(-0.192336 0.0277087 0)
(-0.194103 0.0121499 0)
(-0.000428499 0.0150189 0)
(-0.00282141 0.0426788 0)
(-0.00791716 0.0676713 0)
(-0.0150712 0.0898009 0)
(-0.0238483 0.108952 0)
(-0.033929 0.125073 0)
(-0.0449965 0.138166 0)
(-0.0567489 0.148285 0)
(-0.0689126 0.155526 0)
(-0.0812438 0.160016 0)
(-0.0935291 0.161907 0)
(-0.105585 0.161371 0)
(-0.117256 0.158587 0)
(-0.128416 0.15374 0)
(-0.138958 0.147018 0)
(-0.148802 0.138602 0)
(-0.157881 0.12867 0)
(-0.166144 0.117392 0)
(-0.173554 0.10493 0)
(-0.180081 0.0914365 0)
(-0.185702 0.0770595 0)
(-0.190398 0.0619386 0)
(-0.194153 0.046209 0)
(-0.196952 0.0300027 0)
(-0.198779 0.0134504 0)
(-0.000455323 0.0164891 0)
(-0.00298837 0.0467406 0)
(-0.00836911 0.073961 0)
(-0.0159019 0.0979511 0)
(-0.0251128 0.118602 0)
(-0.0356525 0.135877 0)
(-0.047177 0.149801 0)
(-0.0593614 0.160455 0)
(-0.0719142 0.167963 0)
(-0.0845791 0.172488 0)
(-0.0971353 0.174212 0)
(-0.109397 0.173339 0)
(-0.12121 0.170078 0)
(-0.132452 0.164641 0)
(-0.143025 0.157238 0)
(-0.152856 0.148072 0)
(-0.16189 0.137336 0)
(-0.170088 0.125215 0)
(-0.177422 0.11188 0)
(-0.183872 0.0974923 0)
(-0.189426 0.0822045 0)
(-0.194074 0.066159 0)
(-0.197806 0.049492 0)
(-0.200613 0.0323353 0)
(-0.202483 0.0148182 0)
(-0.00048432 0.0180473 0)
(-0.0031672 0.0510341 0)
(-0.00885002 0.0805909 0)
(-0.0167797 0.106514 0)
(-0.0264384 0.128704 0)
(-0.0374427 0.14714 0)
(-0.049418 0.161875 0)
(-0.0620141 0.173022 0)
(-0.0749208 0.180744 0)
(-0.0878694 0.185237 0)
(-0.100633 0.186725 0)
(-0.113023 0.185445 0)
(-0.124892 0.181641 0)
(-0.136123 0.175555 0)
(-0.146629 0.167422 0)
(-0.156348 0.157467 0)
(-0.165238 0.145902 0)
(-0.173274 0.132923 0)
(-0.180441 0.118713 0)
(-0.186733 0.103441 0)
(-0.192147 0.0872607 0)
(-0.196683 0.0703178 0)
(-0.200342 0.0527477 0)
(-0.20312 0.0346799 0)
(-0.20501 0.0162405 0)
(-0.000515976 0.0197 0)
(-0.00336048 0.0555749 0)
(-0.00936601 0.0875802 0)
(-0.0177141 0.115507 0)
(-0.0278366 0.139266 0)
(-0.0393106 0.15886 0)
(-0.0517272 0.174373 0)
(-0.0647085 0.185958 0)
(-0.0779244 0.193819 0)
(-0.0910941 0.198199 0)
(-0.103985 0.199366 0)
(-0.116413 0.197598 0)
(-0.128233 0.193177 0)
(-0.139341 0.186377 0)
(-0.149663 0.177463 0)
(-0.159152 0.166681 0)
(-0.167783 0.154262 0)
(-0.175545 0.140417 0)
(-0.18244 0.125337 0)
(-0.188476 0.109197 0)
(-0.193664 0.0921546 0)
(-0.198017 0.074354 0)
(-0.201543 0.0559284 0)
(-0.204248 0.0370034 0)
(-0.206129 0.0176996 0)
(-0.000550924 0.0214555 0)
(-0.00357153 0.0603821 0)
(-0.00992489 0.0949521 0)
(-0.0187173 0.124951 0)
(-0.0293218 0.150301 0)
(-0.0412702 0.171034 0)
(-0.0541143 0.187274 0)
(-0.0674459 0.19922 0)
(-0.0809142 0.207129 0)
(-0.0942273 0.211298 0)
(-0.10715 0.212043 0)
(-0.119502 0.209692 0)
(-0.13115 0.204569 0)
(-0.142002 0.196984 0)
(-0.152003 0.187233 0)
(-0.161125 0.175586 0)
(-0.169361 0.162294 0)
(-0.17672 0.14758 0)
(-0.183222 0.131643 0)
(-0.188892 0.114664 0)
(-0.193756 0.0968011 0)
(-0.197841 0.078196 0)
(-0.201165 0.0589779 0)
(-0.203744 0.0392657 0)
(-0.205582 0.0191724 0)
(-0.000589999 0.023324 0)
(-0.0038047 0.065479 0)
(-0.0105367 0.102735 0)
(-0.0198045 0.134868 0)
(-0.0309122 0.16182 0)
(-0.0433384 0.183656 0)
(-0.0565905 0.20055 0)
(-0.070227 0.212758 0)
(-0.083876 0.2206 0)
(-0.097236 0.224435 0)
(-0.110073 0.22464 0)
(-0.122213 0.221597 0)
(-0.13354 0.215676 0)
(-0.143981 0.20723 0)
(-0.153501 0.196584 0)
(-0.162096 0.184037 0)
(-0.169781 0.169856 0)
(-0.17659 0.154277 0)
(-0.182561 0.137508 0)
(-0.18774 0.119731 0)
(-0.19217 0.101103 0)
(-0.195891 0.0817622 0)
(-0.198935 0.061831 0)
(-0.201327 0.0414194 0)
(-0.20308 0.0206302 0)
(-0.000634307 0.0253183 0)
(-0.00406562 0.0708948 0)
(-0.0112144 0.110962 0)
(-0.0209954 0.145288 0)
(-0.0326305 0.173837 0)
(-0.0455358 0.196717 0)
(-0.0591683 0.214163 0)
(-0.0730505 0.226505 0)
(-0.0867895 0.234138 0)
(-0.100077 0.237494 0)
(-0.112684 0.23702 0)
(-0.12445 0.233159 0)
(-0.13528 0.226335 0)
(-0.145126 0.216944 0)
(-0.15398 0.205346 0)
(-0.161865 0.191866 0)
(-0.168825 0.176787 0)
(-0.174917 0.160359 0)
(-0.180204 0.142793 0)
(-0.184752 0.124272 0)
(-0.188624 0.104951 0)
(-0.191875 0.0849605 0)
(-0.194552 0.0644138 0)
(-0.196689 0.0434098 0)
(-0.198308 0.0220381 0)
(-0.000685318 0.0274543 0)
(-0.00436169 0.0766655 0)
(-0.0119748 0.119676 0)
(-0.0223146 0.156244 0)
(-0.0345044 0.186363 0)
(-0.0478868 0.210199 0)
(-0.0618612 0.228065 0)
(-0.0759115 0.240379 0)
(-0.0896255 0.247626 0)
(-0.102693 0.250328 0)
(-0.114894 0.249013 0)
(-0.126093 0.244193 0)
(-0.136219 0.23635 0)
(-0.145256 0.225928 0)
(-0.153232 0.213322 0)
(-0.1602 0.198881 0)
(-0.166236 0.182906 0)
(-0.171426 0.165655 0)
(-0.17586 0.147343 0)
(-0.179625 0.12815 0)
(-0.182804 0.108225 0)
(-0.185469 0.0876892 0)
(-0.187683 0.0666443 0)
(-0.189489 0.0451748 0)
(-0.19092 0.023355 0)
(-0.000745002 0.0297526 0)
(-0.00470264 0.0828368 0)
(-0.0128395 0.128928 0)
(-0.0237934 0.167776 0)
(-0.0365683 0.199411 0)
(-0.0504194 0.224079 0)
(-0.0646814 0.242189 0)
(-0.078798 0.25427 0)
(-0.0923411 0.260918 0)
(-0.105004 0.262761 0)
(-0.116588 0.260418 0)
(-0.126986 0.254481 0)
(-0.136165 0.245497 0)
(-0.14415 0.233955 0)
(-0.151005 0.220288 0)
(-0.156825 0.204869 0)
(-0.161719 0.188012 0)
(-0.165805 0.16998 0)
(-0.169201 0.15099 0)
(-0.172018 0.131215 0)
(-0.174361 0.110795 0)
(-0.176319 0.0898387 0)
(-0.177966 0.0684331 0)
(-0.179361 0.0466464 0)
(-0.180543 0.0245346 0)
(-0.000816031 0.0322395 0)
(-0.00510133 0.0894663 0)
(-0.0138363 0.138782 0)
(-0.0254712 0.179928 0)
(-0.0388633 0.212992 0)
(-0.0531646 0.238318 0)
(-0.0676374 0.256445 0)
(-0.0816858 0.268038 0)
(-0.0948717 0.273831 0)
(-0.106903 0.274574 0)
(-0.117612 0.270993 0)
(-0.126934 0.263768 0)
(-0.134884 0.253512 0)
(-0.141535 0.240766 0)
(-0.146999 0.225995 0)
(-0.151414 0.209593 0)
(-0.154928 0.191885 0)
(-0.157694 0.173135 0)
(-0.159857 0.153555 0)
(-0.161556 0.133309 0)
(-0.162912 0.112524 0)
(-0.164034 0.0912933 0)
(-0.165009 0.0696861 0)
(-0.165908 0.0477516 0)
(-0.166778 0.0255254 0)
(-0.000902066 0.0349489 0)
(-0.00557494 0.0966271 0)
(-0.0150018 0.149317 0)
(-0.0273971 0.192755 0)
(-0.0414379 0.227109 0)
(-0.0561537 0.25286 0)
(-0.0707284 0.270711 0)
(-0.0845294 0.281503 0)
(-0.09712 0.286134 0)
(-0.108237 0.285499 0)
(-0.11776 0.280446 0)
(-0.125681 0.27175 0)
(-0.132075 0.260094 0)
(-0.137075 0.246067 0)
(-0.140849 0.230165 0)
(-0.143581 0.212796 0)
(-0.145463 0.19429 0)
(-0.146681 0.174908 0)
(-0.147412 0.15485 0)
(-0.147816 0.134269 0)
(-0.148036 0.113272 0)
(-0.148194 0.0919351 0)
(-0.148392 0.0703068 0)
(-0.148709 0.0484149 0)
(-0.149203 0.0262729 0)
(-0.00100821 0.0379254 0)
(-0.00614663 0.104413 0)
(-0.0163831 0.160629 0)
(-0.0296326 0.206313 0)
(-0.0443475 0.241754 0)
(-0.0594147 0.267616 0)
(-0.0739353 0.284821 0)
(-0.0872498 0.294428 0)
(-0.0989398 0.297536 0)
(-0.108792 0.29521 0)
(-0.116753 0.288433 0)
(-0.122893 0.278079 0)
(-0.12736 0.264903 0)
(-0.130357 0.249536 0)
(-0.132115 0.232498 0)
(-0.132869 0.214204 0)
(-0.132857 0.194983 0)
(-0.132298 0.175082 0)
(-0.131397 0.154688 0)
(-0.130336 0.133932 0)
(-0.129274 0.112901 0)
(-0.128347 0.0916487 0)
(-0.127667 0.0702006 0)
(-0.127321 0.0485615 0)
(-0.127373 0.0267211 0)
(-0.00114174 0.0412277 0)
(-0.00684809 0.112943 0)
(-0.0180425 0.172834 0)
(-0.032253 0.220664 0)
(-0.0476526 0.256897 0)
(-0.0629636 0.282455 0)
(-0.0772066 0.298546 0)
(-0.0897134 0.306504 0)
(-0.100111 0.307671 0)
(-0.108265 0.303307 0)
(-0.114218 0.294542 0)
(-0.118134 0.282352 0)
(-0.120256 0.267555 0)
(-0.120867 0.250818 0)
(-0.120263 0.232673 0)
(-0.118738 0.213535 0)
(-0.116569 0.193716 0)
(-0.114009 0.173446 0)
(-0.111288 0.152887 0)
(-0.108605 0.132145 0)
(-0.10613 0.111282 0)
(-0.10401 0.0903273 0)
(-0.102363 0.0692802 0)
(-0.101282 0.0481213 0)
(-0.100836 0.026816 0)
(-0.00131327 0.0449345 0)
(-0.00772336 0.122372 0)
(-0.0200616 0.186073 0)
(-0.0353499 0.235864 0)
(-0.0514127 0.272471 0)
(-0.0667896 0.297177 0)
(-0.080434 0.311569 0)
(-0.0917018 0.317327 0)
(-0.100306 0.316081 0)
(-0.10623 0.309309 0)
(-0.109644 0.298295 0)
(-0.110835 0.284112 0)
(-0.110153 0.26763 0)
(-0.107969 0.249538 0)
(-0.104652 0.230365 0)
(-0.100548 0.210507 0)
(-0.0959747 0.190252 0)
(-0.0912122 0.1698 0)
(-0.0865064 0.149282 0)
(-0.0820682 0.128773 0)
(-0.0780758 0.108306 0)
(-0.0746775 0.087881 0)
(-0.071994 0.0674718 0)
(-0.0701205 0.0470342 0)
(-0.0691285 0.0265093 0)
(-0.00153887 0.0491525 0)
(-0.00883495 0.132899 0)
(-0.0225484 0.200512 0)
(-0.0390305 0.251949 0)
(-0.0556745 0.288343 0)
(-0.0708289 0.311483 0)
(-0.0834142 0.323453 0)
(-0.0928648 0.326367 0)
(-0.0990377 0.32219 0)
(-0.102086 0.312636 0)
(-0.102345 0.299138 0)
(-0.10025 0.282853 0)
(-0.0962733 0.264682 0)
(-0.0908804 0.245312 0)
(-0.0845087 0.225249 0)
(-0.077553 0.204855 0)
(-0.0703603 0.184377 0)
(-0.0632299 0.163976 0)
(-0.0564156 0.143742 0)
(-0.0501307 0.123714 0)
(-0.0445518 0.103891 0)
(-0.0398238 0.0842454 0)
(-0.0360638 0.0647233 0)
(-0.0333641 0.0452561 0)
(-0.0317951 0.0257625 0)
(-0.00184372 0.0540299 0)
(-0.0102736 0.144786 0)
(-0.0256453 0.216337 0)
(-0.0434132 0.268914 0)
(-0.0604463 0.304274 0)
(-0.0749187 0.32492 0)
(-0.0857871 0.333594 0)
(-0.0926505 0.332936 0)
(-0.09559 0.325287 0)
(-0.0949905 0.312603 0)
(-0.091397 0.296449 0)
(-0.0854149 0.278031 0)
(-0.0776452 0.258253 0)
(-0.0686466 0.237768 0)
(-0.0589166 0.217033 0)
(-0.0488853 0.196355 0)
(-0.0389169 0.175927 0)
(-0.0293146 0.155854 0)
(-0.0203283 0.136182 0)
(-0.0121617 0.116909 0)
(-0.00498039 0.0979994 0)
(0.00108256 0.0793933 0)
(0.00592055 0.0610126 0)
(0.00944939 0.0427662 0)
(0.011604 0.0245523 0)
(-0.00226895 0.059777 0)
(-0.0121739 0.158369 0)
(-0.029538 0.233743 0)
(-0.0486105 0.28666 0)
(-0.0656477 0.319848 0)
(-0.0787176 0.33682 0)
(-0.0869383 0.341166 0)
(-0.090202 0.336148 0)
(-0.0889193 0.32451 0)
(-0.0837783 0.308425 0)
(-0.0755717 0.289548 0)
(-0.0650894 0.26909 0)
(-0.0530586 0.247905 0)
(-0.040116 0.226577 0)
(-0.0268002 0.205484 0)
(-0.0135562 0.184852 0)
(-0.000744765 0.164805 0)
(0.0113451 0.145387 0)
(0.0224838 0.126589 0)
(0.0324904 0.108366 0)
(0.0412219 0.0906478 0)
(0.0485661 0.0733453 0)
(0.0544343 0.0563574 0)
(0.0587562 0.0395737 0)
(0.0614764 0.0228763 0)
(-0.00288451 0.0667016 0)
(-0.0147396 0.174085 0)
(-0.0344605 0.252895 0)
(-0.0546854 0.304907 0)
(-0.0710123 0.334368 0)
(-0.0815692 0.346194 0)
(-0.0858457 0.345046 0)
(-0.0842082 0.334885 0)
(-0.0775227 0.318836 0)
(-0.0668502 0.299233 0)
(-0.0532553 0.277742 0)
(-0.037707 0.255505 0)
(-0.0210358 0.233271 0)
(-0.00392598 0.211504 0)
(0.0130751 0.19047 0)
(0.0295385 0.170298 0)
(0.0451333 0.151025 0)
(0.0596074 0.132626 0)
(0.0727703 0.115038 0)
(0.0844785 0.0981721 0)
(0.094624 0.0819249 0)
(0.103124 0.0661823 0)
(0.109916 0.0508241 0)
(0.114948 0.0357255 0)
(0.118179 0.0207582 0)
(-0.00381327 0.0752689 0)
(-0.0182819 0.192482 0)
(-0.0406806 0.273843 0)
(-0.0615463 0.323048 0)
(-0.0759023 0.346693 0)
(-0.0822726 0.351615 0)
(-0.0808456 0.343753 0)
(-0.0726946 0.327779 0)
(-0.0592703 0.307115 0)
(-0.0420524 0.28413 0)
(-0.0223687 0.260386 0)
(-0.00132811 0.236857 0)
(0.0201863 0.214116 0)
(0.0414949 0.192462 0)
(0.0620887 0.172017 0)
(0.0815943 0.152794 0)
(0.0997434 0.134737 0)
(0.116347 0.117751 0)
(0.131272 0.101719 0)
(0.144428 0.0865142 0)
(0.155752 0.072004 0)
(0.165202 0.0580554 0)
(0.172743 0.0445357 0)
(0.17835 0.0313122 0)
(0.181999 0.0182522 0)
(-0.00527452 0.0862078 0)
(-0.0232683 0.214213 0)
(-0.0484247 0.296337 0)
(-0.0687099 0.339875 0)
(-0.0789598 0.355005 0)
(-0.0787023 0.351063 0)
(-0.0692849 0.335387 0)
(-0.0527438 0.313244 0)
(-0.031205 0.288147 0)
(-0.00655109 0.262299 0)
(0.0196969 0.236997 0)
(0.0463784 0.212938 0)
(0.0726444 0.190441 0)
(0.0978951 0.169598 0)
(0.12172 0.15037 0)
(0.14385 0.132644 0)
(0.164112 0.116275 0)
(0.182406 0.1011 0)
(0.198675 0.0869593 0)
(0.212894 0.0736942 0)
(0.225055 0.0611537 0)
(0.235157 0.0491942 0)
(0.243203 0.0376778 0)
(0.249195 0.0264718 0)
(0.253127 0.015446 0)
(-0.0076544 0.100683 0)
(-0.030355 0.23992 0)
(-0.0576314 0.319433 0)
(-0.0747828 0.353155 0)
(-0.0774706 0.356503 0)
(-0.0672016 0.341803 0)
(-0.0470327 0.317672 0)
(-0.0201545 0.28961 0)
(0.0106613 0.260864 0)
(0.0432623 0.233193 0)
(0.0760959 0.207436 0)
(0.1081 0.1839 0)
(0.138584 0.162596 0)
(0.167122 0.143386 0)
(0.193469 0.126064 0)
(0.217507 0.110405 0)
(0.239193 0.0961846 0)
(0.258532 0.0831919 0)
(0.275557 0.0712346 0)
(0.290316 0.0601382 0)
(0.302857 0.0497447 0)
(0.313226 0.0399096 0)
(0.321463 0.0305 0)
(0.327595 0.0213906 0)
(0.331638 0.0124613 0)
(-0.0115741 0.120523 0)
(-0.0402532 0.269849 0)
(-0.0672413 0.340745 0)
(-0.0763673 0.358994 0)
(-0.0662429 0.347103 0)
(-0.0416698 0.320412 0)
(-0.00785746 0.288177 0)
(0.0309105 0.255446 0)
(0.0714892 0.224671 0)
(0.11177 0.196835 0)
(0.150443 0.172147 0)
(0.186753 0.150447 0)
(0.220316 0.131423 0)
(0.250976 0.114719 0)
(0.27872 0.0999913 0)
(0.303613 0.0869281 0)
(0.32576 0.0752566 0)
(0.345283 0.0647413 0)
(0.362307 0.0551802 0)
(0.376947 0.0463992 0)
(0.389308 0.0382472 0)
(0.399478 0.0305912 0)
(0.407529 0.0233116 0)
(0.413511 0.0162991 0)
(0.41746 0.00945038 0)
(-0.0177485 0.14855 0)
(-0.0528821 0.30281 0)
(-0.0732995 0.355066 0)
(-0.0658499 0.351045 0)
(-0.0357682 0.321364 0)
(0.00765735 0.283172 0)
(0.0572143 0.244934 0)
(0.108135 0.210188 0)
(0.157552 0.179982 0)
(0.203924 0.154244 0)
(0.246546 0.132471 0)
(0.285206 0.114049 0)
(0.319958 0.0983953 0)
(0.350992 0.0850022 0)
(0.378552 0.0734464 0)
(0.402899 0.063382 0)
(0.424282 0.0545283 0)
(0.442928 0.0466567 0)
(0.459039 0.0395805 0)
(0.47279 0.0331448 0)
(0.484327 0.0272197 0)
(0.49377 0.0216942 0)
(0.501213 0.016471 0)
(0.506725 0.0114626 0)
(0.510353 0.00658818 0)
(-0.0258806 0.189372 0)
(-0.0643844 0.333672 0)
(-0.0643981 0.351754 0)
(-0.0272763 0.319467 0)
(0.0304606 0.272792 0)
(0.0955015 0.227022 0)
(0.160221 0.187481 0)
(0.220819 0.155021 0)
(0.275751 0.128865 0)
(0.324688 0.107854 0)
(0.367882 0.090888 0)
(0.405821 0.0770605 0)
(0.439055 0.0656605 0)
(0.468118 0.0561446 0)
(0.493489 0.0480999 0)
(0.515585 0.0412116 0)
(0.534761 0.0352381 0)
(0.551318 0.0299915 0)
(0.565503 0.0253237 0)
(0.577522 0.021116 0)
(0.587544 0.0172713 0)
(0.595701 0.0137088 0)
(0.602097 0.0103589 0)
(0.60681 0.00716029 0)
(0.609891 0.0040569 0)
(-0.0296293 0.246724 0)
(-0.0583988 0.346547 0)
(-0.0119576 0.311495 0)
(0.0703986 0.251533 0)
(0.159094 0.196214 0)
(0.242193 0.152098 0)
(0.31563 0.118865 0)
(0.37876 0.0942148 0)
(0.432448 0.0758296 0)
(0.478012 0.0619133 0)
(0.516752 0.051184 0)
(0.549796 0.0427494 0)
(0.578079 0.035991 0)
(0.602354 0.0304767 0)
(0.623225 0.0259001 0)
(0.641175 0.0220406 0)
(0.65659 0.0187357 0)
(0.669781 0.0158639 0)
(0.680995 0.0133319 0)
(0.690433 0.0110671 0)
(0.698253 0.0090113 0)
(0.704581 0.0071169 0)
(0.709513 0.00534367 0)