
                                 *****************
                                 * O   R   C   A *
                                 *****************

           --- An Ab Initio, DFT and Semiempirical electronic structure package ---

                  #######################################################
                  #                        -***-                        #
                  #          Department of theory and spectroscopy      #
                  #               Directorship: Frank Neese             #
                  #        Max Planck Institute fuer Kohlenforschung    #
                  #                Kaiser Wilhelm Platz 1               #
                  #                 D-45470 Muelheim/Ruhr               #
                  #                      Germany                        #
                  #                                                     #
                  #                  All rights reserved                #
                  #                        -***-                        #
                  #######################################################


                         Program Version 4.2.1 -  RELEASE  -


 With contributions from (in alphabetic order):
   Daniel Aravena         : Magnetic Suceptibility
   Michael Atanasov       : Ab Initio Ligand Field Theory (pilot matlab implementation)
   Alexander A. Auer      : GIAO ZORA, VPT2
   Ute Becker             : Parallelization
   Giovanni Bistoni       : ED, misc. LED, open-shell LED, HFLD
   Martin Brehm           : Molecular dynamics
   Dmytro Bykov           : SCF Hessian
   Vijay G. Chilkuri      : MRCI spin determinant printing, contributions to CSF-ICE
   Dipayan Datta          : RHF DLPNO-CCSD density
   Achintya Kumar Dutta   : EOM-CC, STEOM-CC
   Dmitry Ganyushin       : Spin-Orbit,Spin-Spin,Magnetic field MRCI
   Miquel Garcia          : C-PCM Hessian, Gaussian charge scheme
   Yang Guo               : DLPNO-NEVPT2, CIM, IAO-localization
   Andreas Hansen         : Spin unrestricted coupled pair/coupled cluster methods
   Benjamin Helmich-Paris : CASSCF linear response (MC-RPA)
   Lee Huntington         : MR-EOM, pCC
   Robert Izsak           : Overlap fitted RIJCOSX, COSX-SCS-MP3, EOM
   Christian Kollmar      : KDIIS, OOCD, Brueckner-CCSD(T), CCSD density
   Simone Kossmann        : Meta GGA functionals, TD-DFT gradient, OOMP2, MP2 Hessian
   Martin Krupicka        : AUTO-CI
   Lucas Lang             : DCDCAS
   Dagmar Lenk            : GEPOL surface, SMD
   Dimitrios Liakos       : Extrapolation schemes; Compound Job, initial MDCI parallelization
   Dimitrios Manganas     : Further ROCIS development; embedding schemes
   Dimitrios Pantazis     : SARC Basis sets
   Taras Petrenko         : DFT Hessian,TD-DFT gradient, ASA, ECA, R-Raman, ABS, FL, XAS/XES, NRVS
   Peter Pinski           : DLPNO-MP2, DLPNO-MP2 Gradient
   Christoph Reimann      : Effective Core Potentials
   Marius Retegan         : Local ZFS, SOC
   Christoph Riplinger    : Optimizer, TS searches, QM/MM, DLPNO-CCSD(T), (RO)-DLPNO pert. Triples
   Tobias Risthaus        : Range-separated hybrids, TD-DFT gradient, RPA, STAB
   Michael Roemelt        : Original ROCIS implementation
   Masaaki Saitow         : Open-shell DLPNO-CCSD energy and density
   Barbara Sandhoefer     : DKH picture change effects
   Avijit Sen             : IP-ROCIS
   Kantharuban Sivalingam : CASSCF convergence, NEVPT2, FIC-MRCI
   Bernardo de Souza      : ESD, SOC TD-DFT
   Georgi Stoychev        : AutoAux, RI-MP2 NMR
   Willem Van den Heuvel  : Paramagnetic NMR
   Boris Wezisla          : Elementary symmetry handling
   Frank Wennmohs         : Technical directorship


 We gratefully acknowledge several colleagues who have allowed us to
 interface, adapt or use parts of their codes:
   Stefan Grimme, W. Hujo, H. Kruse,             : VdW corrections, initial TS optimization,
                  C. Bannwarth                     DFT functionals, gCP, sTDA/sTD-DF
   Ed Valeev, F. Pavosevic, A. Kumar             : LibInt (2-el integral package), F12 methods
   Garnet Chan, S. Sharma, J. Yang, R. Olivares  : DMRG
   Ulf Ekstrom                                   : XCFun DFT Library
   Mihaly Kallay                                 : mrcc  (arbitrary order and MRCC methods)
   Andreas Klamt, Michael Diedenhofen            : otool_cosmo (COSMO solvation model)
   Jiri Pittner, Ondrej Demel                    : Mk-CCSD
   Frank Weinhold                                : gennbo (NPA and NBO analysis)
   Christopher J. Cramer and Donald G. Truhlar   : smd solvation model
   Lars Goerigk                                  : TD-DFT with DH, B97 family of functionals
   V. Asgeirsson, H. Jonsson                     : NEB implementation
   FAccTs GmbH                                   : IRC, NEB, NEB-TS, Multilevel, MM, QM/MM, CI optimization
   S Lehtola, MJT Oliveira, MAL Marques          : LibXC Library


 Your calculation uses the libint2 library for the computation of 2-el integrals
 For citations please refer to: http://libint.valeyev.net

 Your ORCA version has been built with support for libXC version: 4.2.3
 For citations please refer to: https://tddft.org/programs/libxc/

 This ORCA versions uses:
   CBLAS   interface :  Fast vector & matrix operations
   LAPACKE interface :  Fast linear algebra routines
   SCALAPACK package :  Parallel linear algebra routines


----- Orbital basis set information -----
Your calculation utilizes the basis: def2-TZVP
   F. Weigend and R. Ahlrichs, Phys. Chem. Chem. Phys. 7, 3297 (2005).

----- AuxJK basis set information -----
Your calculation utilizes the auxiliary basis: def2/JK
   H-Ba, Hf-Rn: F. Weigend, J. Comput. Chem. 29, 167 (2008).

cite the ECPs for Mo [Def2-ECP] as follows:
Ce-Yb(ecp-28): M. Dolg, H. Stoll, H.Preuss, J. Chem. Phys., 1989, 90, 1730-1734.
Y-Cd(ecp-28), Hf-Hg(ecp-46): D. Andrae,U. Haeussermann, M. Dolg, H. Stoll, H. Preuss, Theor. Chim. Acta, 1990, 77, 123-141.
In-Sb(ecp-28), Tl-Bi(ecp-46): B. Metz, H. Stoll, M. Dolg, J. Chem. Phys., 2000, 113, 2563-2569.
Te-Xe(ecp-28), Po-Rn(ecp-46): K. A. Peterson, D. Figgen, E. Goll, H. Stoll, M. Dolg, J. Chem. Phys., 2003, 119, 11113-11123.
Rb(ecp-28), Cs(ecp-46): T. Leininger, A. Nicklass, W. Kuechle, H. Stoll, M. Dolg, A. Bergner, Chem. Phys. Lett., 1996, 255, 274-280.
Sr(ecp-28), Ba(ecp-46): M. Kaupp, P. V. Schleyer, H. Stoll and H. Preuss, J. Chem. Phys., 1991, 94, 1360-1366.
La(ecp-46): M. Dolg, H. Stoll, A. Savin, H. Preuss, Theor. Chim. Acta, 1989, 75, 173-194.
Lu(ecp-28): X. Cao, M. Dolg, J. Chem. Phys., 2001, 115, 7348-7355.

ECP parameters for Mo [Def2-ECP] have been obtained from:
TURBOMOLE (7.0.2)

================================================================================
                                        WARNINGS
                       Please study these warnings very carefully!
================================================================================


WARNING: Geometry Optimization
  ===> : Switching off AutoStart
         For restart on a previous wavefunction, please use MOREAD

INFO   : the flag for use of LIBINT has been found!

================================================================================
                                       INPUT FILE
================================================================================
NAME = MsrP-4S-opt7.inp
|  1> # shortYedY-4S opt  RIJCOSX def2/J GRID4 NOFINALGRID D3BJ
|  2> # By default, def2-SVP/TZVP/TZVPP use def2-ECP, no need to write 
|  3> 
|  4> !UKS opt B3LYP/G def2-TZVP def2/JK RIJK Conv 
|  5> !TightSCF DIRECT xyzfile 
|  6> 
|  7> %pal nprocs 8
|  8> end
|  9> 
| 10> %method SPECIALGRIDATOMS 42
| 11>         SPECIALGRIDINTACC 7
| 12>         end
| 13> 
| 14> %basis newGTO Mo "def2-TZVPP" end
| 15>        newGTO S "def2-TZVPP" end
| 16> end
| 17> 
| 18> %maxcore 4000
| 19> 
| 20> * xyz -1 2
| 21> 42      -0.970000000      2.230000000     -1.000000000
| 22> 8       -0.985840798      2.206892176      0.687170551
| 23> 16      -2.515638044      0.570968733     -1.844275698
| 24> 16      -2.701928158      3.708428889     -1.809500318
| 25> 6       -4.037981396      1.388564575     -2.225276167
| 26> 6       -4.123458384      2.728582635     -2.195594702
| 27> 6        1.460320735      6.884183079     -2.749476494
| 28> 6        1.081222322      6.671259776     -1.304209353
| 29> 8        1.320642789      7.930927365     -3.339571955
| 30> 7        0.676817864      7.930151408     -0.690231635
| 31> 1        1.990088634      6.286156917     -0.817729165
| 32> 6        0.011554564      5.560371309     -1.189528533
| 33> 1        0.430556147      8.591857986     -1.419472990
| 34> 1       -0.302861506      5.511280008     -0.145695908
| 35> 1       -0.860814907      5.822713169     -1.790494890
| 36> 16       0.646772471      3.913066998     -1.696452916
| 37> 1       -0.129121114      7.796220443     -0.093555495
| 38> 6       -5.152990311      0.439626180     -2.577286879
| 39> 1       -6.062029760      0.957772816     -2.882953967
| 40> 1       -4.850422261     -0.221499233     -3.394826475
| 41> 1       -5.400708829     -0.204285519     -1.727708840
| 42> 6       -5.348184791      3.548649244     -2.502562222
| 43> 1       -5.657091339      4.130169885     -1.628381335
| 44> 1       -5.141920279      4.266682767     -3.301968395
| 45> 1       -6.193261150      2.933965548     -2.812093263
| 46> 1        1.878787382      5.996377209     -3.254135332
| 47> 16       0.622813274      0.590220156     -1.795903425
| 48> 6        2.136542470      0.892472165     -0.807663085
| 49> 1        2.871878848      0.138073920     -1.091595889
| 50> 1        2.535250636      1.885576524     -1.008401105
| 51> 1        1.923995943      0.802782701      0.257220554
| 52> *
| 53> 
| 54> 
| 55> 
| 56> 
| 57> 
| 58>                          ****END OF INPUT****
================================================================================

                       *****************************
                       * Geometry Optimization Run *
                       *****************************

Geometry optimization settings:
Update method            Update   .... BFGS
Choice of coordinates    CoordSys .... Z-matrix Internals
Initial Hessian          InHess   .... Almoef's Model

Convergence Tolerances:
Energy Change            TolE     ....  5.0000e-06 Eh
Max. Gradient            TolMAXG  ....  3.0000e-04 Eh/bohr
RMS Gradient             TolRMSG  ....  1.0000e-04 Eh/bohr
Max. Displacement        TolMAXD  ....  4.0000e-03 bohr
RMS Displacement         TolRMSD  ....  2.0000e-03 bohr
Strict Convergence                ....  False
------------------------------------------------------------------------------
                        ORCA OPTIMIZATION COORDINATE SETUP
------------------------------------------------------------------------------

The optimization will be done in new redundant internal coordinates
Making redundant internal coordinates   ...  (new redundants) done
Evaluating the initial hessian          ...  (Almloef) done
Evaluating the coordinates              ...  done
Calculating the B-matrix                .... done
Calculating the G-matrix                .... done
Diagonalizing the G-matrix              .... done
Small eigenvalue found = 4.100e-03
Small eigenvalue found = 1.238e-02
Small eigenvalue found = 1.505e-02
Small eigenvalue found = 2.216e-02
Small eigenvalue found = 2.610e-02
The first mode is                       ....   63
The number of degrees of freedom        ....   87

    -----------------------------------------------------------------
                    Redundant Internal Coordinates


    -----------------------------------------------------------------
         Definition                    Initial Value    Approx d2E/dq
    -----------------------------------------------------------------
      1. B(O   1,Mo  0)                  1.6874         1.898946   
      2. B(S   2,Mo  0)                  2.4195         0.388206   
      3. B(S   3,Mo  0)                  2.4167         0.392227   
      4. B(C   4,S   2)                  1.7695         0.417857   
      5. B(C   5,C   4)                  1.3431         0.742358   
      6. B(C   5,S   3)                  1.7692         0.418394   
      7. B(C   7,C   6)                  1.5093         0.403158   
      8. B(O   8,C   6)                  1.2097         1.085221   
      9. B(N   9,C   7)                  1.4578         0.436143   
     10. B(H  10,C   7)                  1.1005         0.346529   
     11. B(C  11,C   7)                  1.5464         0.351707   
     12. B(H  12,N   9)                  1.0150         0.424780   
     13. B(H  13,C  11)                  1.0913         0.358434   
     14. B(H  14,C  11)                  1.0913         0.358338   
     15. B(S  15,Mo  0)                  2.4355         0.366087   
     16. B(S  15,C  11)                  1.8369         0.326254   
     17. B(H  16,N   9)                  1.0117         0.430045   
     18. B(C  17,C   4)                  1.5059         0.408204   
     19. B(H  18,C  17)                  1.0901         0.360002   
     20. B(H  19,C  17)                  1.0941         0.354746   
     21. B(H  20,C  17)                  1.0944         0.354292   
     22. B(C  21,C   5)                  1.5056         0.408676   
     23. B(H  22,C  21)                  1.0944         0.354284   
     24. B(H  23,C  21)                  1.0942         0.354650   
     25. B(H  24,C  21)                  1.0899         0.360282   
     26. B(H  25,C   6)                  1.1036         0.342516   
     27. B(S  26,Mo  0)                  2.4206         0.386674   
     28. B(C  27,S  26)                  1.8329         0.331102   
     29. B(H  28,C  27)                  1.0911         0.358675   
     30. B(H  29,C  27)                  1.0888         0.361670   
     31. B(H  30,C  27)                  1.0896         0.360648   
     32. A(O   1,Mo  0,S   2)          109.4817         0.646017   
     33. A(S  15,Mo  0,S  26)           86.4050         0.494130   
     34. A(O   1,Mo  0,S   3)          109.6674         0.647318   
     35. A(S   2,Mo  0,S  26)           80.8584         0.499546   
     36. A(S   2,Mo  0,S   3)           81.0706         0.500873   
     37. A(O   1,Mo  0,S  26)          109.0054         0.645519   
     38. A(S   2,Mo  0,S  15)          142.9514         0.494493   
     39. A(S   3,Mo  0,S  15)           87.5468         0.495440   
     40. A(S   3,Mo  0,S  26)          140.8811         0.500504   
     41. A(O   1,Mo  0,S  15)          107.5545         0.638670   
     42. A(Mo  0,S   2,C   4)          107.9328         0.457559   
     43. A(Mo  0,S   3,C   5)          108.0658         0.458527   
     44. A(S   2,C   4,C   5)          120.7300         0.440793   
     45. A(C   5,C   4,C  17)          125.9282         0.415981   
     46. A(S   2,C   4,C  17)          113.3400         0.396255   
     47. A(S   3,C   5,C   4)          120.4161         0.440895   
     48. A(C   4,C   5,C  21)          126.2083         0.416067   
     49. A(S   3,C   5,C  21)          113.3563         0.396425   
     50. A(O   8,C   6,H  25)          121.1176         0.382747   
     51. A(C   7,C   6,H  25)          114.8117         0.325716   
     52. A(C   7,C   6,O   8)          124.0689         0.441400   
     53. A(H  10,C   7,C  11)          106.6848         0.319118   
     54. A(N   9,C   7,C  11)          113.4042         0.366978   
     55. A(C   6,C   7,C  11)          110.2492         0.364340   
     56. A(N   9,C   7,H  10)          110.1887         0.328615   
     57. A(C   6,C   7,H  10)          105.3817         0.326341   
     58. A(C   6,C   7,N   9)          110.5577         0.375703   
     59. A(C   7,N   9,H  12)          109.1272         0.336991   
     60. A(H  12,N   9,H  16)          108.4668         0.302064   
     61. A(C   7,N   9,H  16)          110.7970         0.337684   
     62. A(H  14,C  11,S  15)          109.8793         0.332965   
     63. A(H  13,C  11,S  15)          108.8609         0.332980   
     64. A(C   7,C  11,S  15)          112.6163         0.369886   
     65. A(H  13,C  11,H  14)          107.8929         0.290404   
     66. A(C   7,C  11,H  14)          109.8404         0.320870   
     67. A(C   7,C  11,H  13)          107.6106         0.320884   
     68. A(Mo  0,S  15,C  11)          108.1350         0.432886   
     69. A(C   4,C  17,H  19)          110.5299         0.328276   
     70. A(C   4,C  17,H  18)          112.5498         0.329073   
     71. A(H  19,C  17,H  20)          106.6864         0.289417   
     72. A(H  18,C  17,H  20)          107.9739         0.290086   
     73. A(C   4,C  17,H  20)          110.9094         0.328206   
     74. A(H  18,C  17,H  19)          107.9581         0.290144   
     75. A(H  23,C  21,H  24)          107.9867         0.290167   
     76. A(H  22,C  21,H  24)          107.9191         0.290120   
     77. A(C   5,C  21,H  24)          112.4243         0.329178   
     78. A(H  22,C  21,H  23)          106.7442         0.289404   
     79. A(C   5,C  21,H  23)          110.6750         0.328323   
     80. A(C   5,C  21,H  22)          110.8650         0.328268   
     81. A(Mo  0,S  26,C  27)          104.7412         0.438336   
     82. A(H  29,C  27,H  30)          109.0683         0.291108   
     83. A(H  28,C  27,H  30)          109.2011         0.290728   
     84. A(S  26,C  27,H  30)          110.6266         0.334137   
     85. A(H  28,C  27,H  29)          109.6258         0.290857   
     86. A(S  26,C  27,H  29)          110.6975         0.334294   
     87. A(S  26,C  27,H  28)          107.5944         0.333833   
     88. D(C   4,S   2,Mo  0,S  26)   -155.8662         0.001740   
     89. D(C   4,S   2,Mo  0,S  15)    -84.4435         0.001740   
     90. D(C   4,S   2,Mo  0,S   3)    -10.7070         0.001740   
     91. D(C   4,S   2,Mo  0,O   1)     97.0991         0.001740   
     92. D(C   5,S   3,Mo  0,S  15)    155.8947         0.001745   
     93. D(C   5,S   3,Mo  0,O   1)    -96.3303         0.001745   
     94. D(C   5,S   3,Mo  0,S  26)     74.6466         0.001745   
     95. D(C   5,S   3,Mo  0,S   2)     11.2688         0.001745   
     96. D(C  17,C   4,S   2,Mo  0)   -171.8195         0.004046   
     97. D(C   5,C   4,S   2,Mo  0)      8.6549         0.004046   
     98. D(C  21,C   5,C   4,S   2)    179.6881         0.039225   
     99. D(S   3,C   5,C   4,S   2)      1.3936         0.039225   
    100. D(S   3,C   5,C   4,C  17)   -178.0685         0.039225   
    101. D(C   4,C   5,S   3,Mo  0)    -10.7145         0.004053   
    102. D(C  21,C   5,C   4,C  17)      0.2259         0.039225   
    103. D(C  21,C   5,S   3,Mo  0)    170.7844         0.004053   
    104. D(C  11,C   7,C   6,H  25)    -59.9117         0.012054   
    105. D(C  11,C   7,C   6,O   8)    119.6115         0.012054   
    106. D(H  10,C   7,C   6,H  25)     54.8519         0.012054   
    107. D(H  10,C   7,C   6,O   8)   -125.6249         0.012054   
    108. D(N   9,C   7,C   6,H  25)    173.8938         0.012054   
    109. D(N   9,C   7,C   6,O   8)     -6.5830         0.012054   
    110. D(H  16,N   9,C   7,C  11)     14.4184         0.016219   
    111. D(H  16,N   9,C   7,H  10)   -105.0851         0.016219   
    112. D(H  16,N   9,C   7,C   6)    138.8281         0.016219   
    113. D(H  12,N   9,C   7,C  11)   -104.9452         0.016219   
    114. D(H  12,N   9,C   7,H  10)    135.5513         0.016219   
    115. D(H  12,N   9,C   7,C   6)     19.4644         0.016219   
    116. D(H  13,C  11,C   7,H  10)     71.6453         0.009958   
    117. D(H  13,C  11,C   7,N   9)    -49.8420         0.009958   
    118. D(H  13,C  11,C   7,C   6)   -174.4186         0.009958   
    119. D(S  15,C  11,C   7,H  10)    -48.3320         0.009958   
    120. D(S  15,C  11,C   7,N   9)   -169.8193         0.009958   
    121. D(S  15,C  11,C   7,C   6)     65.6041         0.009958   
    122. D(H  14,C  11,C   7,H  10)   -171.1469         0.009958   
    123. D(H  14,C  11,C   7,N   9)     67.3658         0.009958   
    124. D(H  14,C  11,C   7,C   6)    -57.2109         0.009958   
    125. D(Mo  0,S  15,C  11,H  14)    -69.5059         0.003193   
    126. D(Mo  0,S  15,C  11,H  13)     48.4483         0.003193   
    127. D(Mo  0,S  15,C  11,C   7)    167.7010         0.003193   
    128. D(C  11,S  15,Mo  0,S  26)   -175.3414         0.001714   
    129. D(C  11,S  15,Mo  0,S   3)     43.3273         0.001714   
    130. D(C  11,S  15,Mo  0,S   2)    114.9897         0.001714   
    131. D(C  11,S  15,Mo  0,O   1)    -66.5356         0.001714   
    132. D(H  20,C  17,C   4,C   5)   -117.2241         0.012345   
    133. D(H  20,C  17,C   4,S   2)     63.2795         0.012345   
    134. D(H  19,C  17,C   4,C   5)    124.6578         0.012345   
    135. D(H  19,C  17,C   4,S   2)    -54.8386         0.012345   
    136. D(H  18,C  17,C   4,C   5)      3.8620         0.012345   
    137. D(H  18,C  17,C   4,S   2)   -175.6345         0.012345   
    138. D(H  24,C  21,C   5,C   4)     -2.7769         0.012373   
    139. D(H  24,C  21,C   5,S   3)    175.6210         0.012373   
    140. D(H  23,C  21,C   5,C   4)   -123.6261         0.012373   
    141. D(H  23,C  21,C   5,S   3)     54.7718         0.012373   
    142. D(H  22,C  21,C   5,C   4)    118.1200         0.012373   
    143. D(H  22,C  21,C   5,S   3)    -63.4821         0.012373   
    144. D(C  27,S  26,Mo  0,S  15)     59.3479         0.001738   
    145. D(C  27,S  26,Mo  0,S   3)    140.9972         0.001738   
    146. D(C  27,S  26,Mo  0,S   2)   -155.5576         0.001738   
    147. D(C  27,S  26,Mo  0,O   1)    -47.9891         0.001738   
    148. D(H  30,C  27,S  26,Mo  0)     57.7040         0.003245   
    149. D(H  29,C  27,S  26,Mo  0)    -63.3181         0.003245   
    150. D(H  28,C  27,S  26,Mo  0)    176.9146         0.003245   
    -----------------------------------------------------------------

Number of atoms                         .... 31
Number of degrees of freedom            .... 150

         *************************************************************
         *                GEOMETRY OPTIMIZATION CYCLE   1            *
         *************************************************************
---------------------------------
CARTESIAN COORDINATES (ANGSTROEM)
---------------------------------
  Mo    -0.970000    2.230000   -1.000000
  O     -0.985841    2.206892    0.687171
  S     -2.515638    0.570969   -1.844276
  S     -2.701928    3.708429   -1.809500
  C     -4.037981    1.388565   -2.225276
  C     -4.123458    2.728583   -2.195595
  C      1.460321    6.884183   -2.749476
  C      1.081222    6.671260   -1.304209
  O      1.320643    7.930927   -3.339572
  N      0.676818    7.930151   -0.690232
  H      1.990089    6.286157   -0.817729
  C      0.011555    5.560371   -1.189529
  H      0.430556    8.591858   -1.419473
  H     -0.302862    5.511280   -0.145696
  H     -0.860815    5.822713   -1.790495
  S      0.646772    3.913067   -1.696453
  H     -0.129121    7.796220   -0.093555
  C     -5.152990    0.439626   -2.577287
  H     -6.062030    0.957773   -2.882954
  H     -4.850422   -0.221499   -3.394826
  H     -5.400709   -0.204286   -1.727709
  C     -5.348185    3.548649   -2.502562
  H     -5.657091    4.130170   -1.628381
  H     -5.141920    4.266683   -3.301968
  H     -6.193261    2.933966   -2.812093
  H      1.878787    5.996377   -3.254135
  S      0.622813    0.590220   -1.795903
  C      2.136542    0.892472   -0.807663
  H      2.871879    0.138074   -1.091596
  H      2.535251    1.885577   -1.008401
  H      1.923996    0.802783    0.257221

----------------------------
CARTESIAN COORDINATES (A.U.)
----------------------------
  NO LB      ZA    FRAG     MASS         X           Y           Z
   0 Mo   14.0000*   0    95.940   -1.833034    4.214089   -1.889726
   1 O     8.0000    0    15.999   -1.862969    4.170422    1.298564
   2 S    16.0000    0    32.060   -4.753867    1.078975   -3.485176
   3 S    16.0000    0    32.060   -5.105904    7.007915   -3.419460
   4 C     6.0000    0    12.011   -7.630679    2.624007   -4.205163
   5 C     6.0000    0    12.011   -7.792207    5.156274   -4.149073
   6 C     6.0000    0    12.011    2.759606   13.009221   -5.195758
   7 C     6.0000    0    12.011    2.043214   12.606854   -2.464598
   8 O     8.0000    0    15.999    2.495653   14.987281   -6.310876
   9 N     7.0000    0    14.007    1.279000   14.985814   -1.304349
  10 H     1.0000    0     1.008    3.760723   11.879115   -1.545284
  11 C     6.0000    0    12.011    0.021835   10.507579   -2.247883
  12 H     1.0000    0     1.008    0.813633   16.236259   -2.682415
  13 H     1.0000    0     1.008   -0.572325   10.414810   -0.275325
  14 H     1.0000    0     1.008   -1.626704   11.003333   -3.383545
  15 S    16.0000    0    32.060    1.222223    7.394625   -3.205831
  16 H     1.0000    0     1.008   -0.244004   14.732722   -0.176794
  17 C     6.0000    0    12.011   -9.737740    0.830773   -4.870366
  18 H     1.0000    0     1.008  -11.455576    1.809928   -5.447993
  19 H     1.0000    0     1.008   -9.165970   -0.418573   -6.415292
  20 H     1.0000    0     1.008  -10.205861   -0.386044   -3.264897
  21 C     6.0000    0    12.011  -10.106605    6.705975   -4.729157
  22 H     1.0000    0     1.008  -10.690353    7.804890   -3.077195
  23 H     1.0000    0     1.008   -9.716821    8.062862   -6.239816
  24 H     1.0000    0     1.008  -11.703567    5.544391   -5.314086
  25 H     1.0000    0     1.008    3.550394   11.331511   -6.149425
  26 S    16.0000    0    32.060    1.176947    1.115354   -3.393766
  27 C     6.0000    0    12.011    4.037480    1.686528   -1.526262
  28 H     1.0000    0     1.008    5.427065    0.260922   -2.062817
  29 H     1.0000    0     1.008    4.790929    3.563223   -1.905602
  30 H     1.0000    0     1.008    3.635825    1.517039    0.486076
* core charge reduced due to ECP

--------------------------------
INTERNAL COORDINATES (ANGSTROEM)
--------------------------------
 Mo     0   0   0     0.000000000000     0.00000000     0.00000000
 O      1   0   0     1.687403144057     0.00000000     0.00000000
 S      1   2   0     2.419541932304   109.48167214     0.00000000
 S      1   2   3     2.416737033511   109.66740353    87.22544239
 C      3   1   2     1.769506597787   107.93275573    97.09905079
 C      5   3   1     1.343069508986   120.72996898     8.65488287
 C      4   1   2     5.319143327081    82.16374507   104.78750678
 C      7   4   1     1.509254467793    63.25601773   289.02607618
 O      7   4   1     1.209709131141   120.82804007   173.57235143
 N      8   7   4     1.457847641206   110.55770291   242.80874305
 H      8   7   4     1.100456795342   105.38165936   123.76677356
 C      8   7   4     1.546419732509   110.24924274     9.00320932
 H     10   8   7     1.015033685387   109.12716261    19.46442446
 H     12   8   7     1.091262557739   107.61064977   185.58139343
 H     12   8   7     1.091335103296   109.84036294   302.78914329
 S     12   8   7     1.836868425471   112.61632465    65.60406321
 H     10   8   7     1.011680560103   110.79700054   138.82806124
 C      5   3   1     1.505868685974   113.33995522   188.18052519
 H     18   5   3     1.090073862141   112.54980290   184.36553243
 H     18   5   3     1.094077340787   110.52986706   305.16138963
 H     18   5   3     1.094426600837   110.90944197    63.27947730
 C      6   5   3     1.505554075261   126.20830203   179.68805776
 H     22   6   5     1.094432151621   110.86500721   118.11999203
 H     22   6   5     1.094151460490   110.67504785   236.37394309
 H     22   6   5     1.089862176613   112.42431591   357.22309936
 H      7   4   1     1.103627718132    84.10103020    50.65878796
 S      1   2   3     2.420618583037   109.00537121   273.23280069
 C     27   1   2     1.832853328930   104.74119226   312.01086293
 H     28  27   1     1.091079345445   107.59435236   176.91456728
 H     28  27   1     1.088815972593   110.69748452   296.68193255
 H     28  27   1     1.089585880370   110.62662217    57.70404050

---------------------------
INTERNAL COORDINATES (A.U.)
---------------------------
 Mo     0   0   0     0.000000000000     0.00000000     0.00000000
 O      1   0   0     3.188729819785     0.00000000     0.00000000
 S      1   2   0     4.572271621593   109.48167214     0.00000000
 S      1   2   3     4.566971131042   109.66740353    87.22544239
 C      3   1   2     3.343882861985   107.93275573    97.09905079
 C      5   3   1     2.538033550804   120.72996898     8.65488287
 C      4   1   2    10.051724155258    82.16374507   104.78750678
 C      7   4   1     2.852077610526    63.25601773   289.02607618
 O      7   4   1     2.286018959560   120.82804007   173.57235143
 N      8   7   4     2.754932786863   110.55770291   242.80874305
 H      8   7   4     2.079561965410   105.38165936   123.76677356
 C      8   7   4     2.922309782534   110.24924274     9.00320932
 H     10   8   7     1.918135682086   109.12716261    19.46442446
 H     12   8   7     2.062187374329   107.61064977   185.58139343
 H     12   8   7     2.062324465565   109.84036294   302.78914329
 S     12   8   7     3.471178268187   112.61632465    65.60406321
 H     10   8   7     1.911799193607   110.79700054   138.82806124
 C      5   3   1     2.845679410139   113.33995522   188.18052519
 H     18   5   3     2.059941065192   112.54980290   184.36553243
 H     18   5   3     2.067506543416   110.52986706   305.16138963
 H     18   5   3     2.068166549261   110.90944197    63.27947730
 C      6   5   3     2.845084882052   126.20830203   179.68805776
 H     22   6   5     2.068177038722   110.86500721   118.11999203
 H     22   6   5     2.067646609356   110.67504785   236.37394309
 H     22   6   5     2.059541037518   112.42431591   357.22309936
 H      7   4   1     2.085554141074    84.10103020    50.65878796
 S      1   2   3     4.574306196621   109.00537121   273.23280069
 C     27   1   2     3.463590835324   104.74119226   312.01086293
 H     28  27   1     2.061841153269   107.59435236   176.91456728
 H     28  27   1     2.057563998440   110.69748452   296.68193255
 H     28  27   1     2.059018913287   110.62662217    57.70404050

---------------------
BASIS SET INFORMATION
---------------------
There are 6 groups of distinct atoms

 Group   1 Type Mo  : 7s7p5d2f1g contracted to 6s4p3d2f1g pattern {211111/4111/311/11/1}
 Group   2 Type O   : 11s6p2d1f contracted to 5s3p2d1f pattern {62111/411/11/1}
 Group   3 Type S   : 14s9p3d1f contracted to 5s5p3d1f pattern {73211/51111/111/1}
 Group   4 Type C   : 11s6p2d1f contracted to 5s3p2d1f pattern {62111/411/11/1}
 Group   5 Type N   : 11s6p2d1f contracted to 5s3p2d1f pattern {62111/411/11/1}
 Group   6 Type H   : 5s1p contracted to 3s1p pattern {311/1}

Atom   0Mo   basis set group =>   1
Atom   1O    basis set group =>   2
Atom   2S    basis set group =>   3
Atom   3S    basis set group =>   3
Atom   4C    basis set group =>   4
Atom   5C    basis set group =>   4
Atom   6C    basis set group =>   4
Atom   7C    basis set group =>   4
Atom   8O    basis set group =>   2
Atom   9N    basis set group =>   5
Atom  10H    basis set group =>   6
Atom  11C    basis set group =>   4
Atom  12H    basis set group =>   6
Atom  13H    basis set group =>   6
Atom  14H    basis set group =>   6
Atom  15S    basis set group =>   3
Atom  16H    basis set group =>   6
Atom  17C    basis set group =>   4
Atom  18H    basis set group =>   6
Atom  19H    basis set group =>   6
Atom  20H    basis set group =>   6
Atom  21C    basis set group =>   4
Atom  22H    basis set group =>   6
Atom  23H    basis set group =>   6
Atom  24H    basis set group =>   6
Atom  25H    basis set group =>   6
Atom  26S    basis set group =>   3
Atom  27C    basis set group =>   4
Atom  28H    basis set group =>   6
Atom  29H    basis set group =>   6
Atom  30H    basis set group =>   6
----------------------------------
AUXILIARY/JK BASIS SET INFORMATION
----------------------------------
There are 6 groups of distinct atoms

 Group   1 Type Mo  : 13s12p10d9f6g3h2i contracted to 11s10p9d8f6g3h2i pattern {31111111111/3111111111/211111111/21111111/111111/111/11}
 Group   2 Type O   : 14s10p6d2f1g contracted to 10s8p4d2f1g pattern {5111111111/31111111/3111/11/1}
 Group   3 Type S   : 16s12p10d4f1g contracted to 13s11p9d4f1g pattern {4111111111111/21111111111/211111111/1111/1}
 Group   4 Type C   : 14s10p6d2f1g contracted to 10s8p5d1f1g pattern {5111111111/31111111/21111/2/1}
 Group   5 Type N   : 14s10p6d2f1g contracted to 10s8p4d2f1g pattern {5111111111/31111111/3111/11/1}
 Group   6 Type H   : 4s2p2d contracted to 2s2p2d pattern {31/11/11}

Atom   0Mo   basis set group =>   1
Atom   1O    basis set group =>   2
Atom   2S    basis set group =>   3
Atom   3S    basis set group =>   3
Atom   4C    basis set group =>   4
Atom   5C    basis set group =>   4
Atom   6C    basis set group =>   4
Atom   7C    basis set group =>   4
Atom   8O    basis set group =>   2
Atom   9N    basis set group =>   5
Atom  10H    basis set group =>   6
Atom  11C    basis set group =>   4
Atom  12H    basis set group =>   6
Atom  13H    basis set group =>   6
Atom  14H    basis set group =>   6
Atom  15S    basis set group =>   3
Atom  16H    basis set group =>   6
Atom  17C    basis set group =>   4
Atom  18H    basis set group =>   6
Atom  19H    basis set group =>   6
Atom  20H    basis set group =>   6
Atom  21C    basis set group =>   4
Atom  22H    basis set group =>   6
Atom  23H    basis set group =>   6
Atom  24H    basis set group =>   6
Atom  25H    basis set group =>   6
Atom  26S    basis set group =>   3
Atom  27C    basis set group =>   4
Atom  28H    basis set group =>   6
Atom  29H    basis set group =>   6
Atom  30H    basis set group =>   6
-------------------------
ECP PARAMETER INFORMATION
-------------------------

 Group 1, Type Mo ECP Def2-ECP (replacing 28 core electrons, lmax=3)

Atom   0Mo   ECP group =>   1



           ************************************************************
           *        Program running with 8 parallel MPI-processes     *
           *              working on a shared directory               *
           ************************************************************
------------------------------------------------------------------------------
                           ORCA GTO INTEGRAL CALCULATION
                           -- RI-GTO INTEGRALS CHOSEN --
------------------------------------------------------------------------------

                         BASIS SET STATISTICS AND STARTUP INFO

Gaussian basis set:
 # of primitive gaussian shells          ...  440
 # of primitive gaussian functions       ...  954
 # of contracted shells                  ...  253
 # of contracted basis functions         ...  655
 Highest angular momentum                ...    4
 Maximum contraction depth               ...    7
Auxiliary gaussian basis set:
 # of primitive gaussian shells          ...  710
 # of primitive gaussian functions       ... 2198
 # of contracted shells                  ...  566
 # of contracted aux-basis functions     ... 1868
 Highest angular momentum                ...    6
 Maximum contraction depth               ...    5
Ratio of auxiliary to basis functions    ...  2.85
Integral package used                  ... LIBINT
 One Electron integrals                  
   ECP integrals                         ... done
 Ordering auxiliary basis shells         ... done
 Integral threshhold             Thresh  ...  2.500e-11
 Primitive cut-off               TCut    ...  2.500e-12
 Pre-screening matrix                    ... done
 Shell pair data                         ... 
 Ordering of the shell pairs             ... done (   0.005 sec) 21365 of 32131 pairs
 Determination of significant pairs      ... done (   0.000 sec)
 Creation of shell pair data             ... done (   0.003 sec)
 Storage of shell pair data              ... done (   0.053 sec)
 Shell pair data done in (   0.061 sec)
 Computing two index integrals           ... done
 Cholesky decomposition of the V-matrix  ... done
 Computing three index integrals:
 <ss|s> ...  1007286 b.        0 skpd (  0.0%)     0.033 s. (  0.000 ms/b)
 <ss|p> ...   853464 b.        0 skpd (  0.0%)     0.045 s. (  0.000 ms/b)
 <ss|d> ...   630174 b.        0 skpd (  0.0%)     0.042 s. (  0.000 ms/b)
 <ss|f> ...   188556 b.        0 skpd (  0.0%)     0.014 s. (  0.000 ms/b)
 <ss|g> ...   104202 b.        0 skpd (  0.0%)     0.010 s. (  0.000 ms/b)
 <ss|h> ...    14886 b.        0 skpd (  0.0%)     0.004 s. (  0.000 ms/b)
 <ss|i> ...     9924 b.        0 skpd (  0.0%)     0.005 s. (  0.001 ms/b)
 <sp|s> ...  1209474 b.        0 skpd (  0.0%)     0.062 s. (  0.000 ms/b)
 <sp|p> ...  1024776 b.        0 skpd (  0.0%)     0.084 s. (  0.000 ms/b)
 <sp|d> ...   756666 b.        0 skpd (  0.0%)     0.090 s. (  0.000 ms/b)
 <sp|f> ...   226404 b.        0 skpd (  0.0%)     0.035 s. (  0.000 ms/b)
 <sp|g> ...   125118 b.        0 skpd (  0.0%)     0.024 s. (  0.000 ms/b)
 <sp|h> ...    17874 b.        0 skpd (  0.0%)     0.011 s. (  0.001 ms/b)
 <sp|i> ...    11916 b.        0 skpd (  0.0%)     0.014 s. (  0.001 ms/b)
 <sd|s> ...   593166 b.        0 skpd (  0.0%)     0.035 s. (  0.000 ms/b)
 <sd|p> ...   502584 b.        0 skpd (  0.0%)     0.053 s. (  0.000 ms/b)
 <sd|d> ...   371094 b.        0 skpd (  0.0%)     0.055 s. (  0.000 ms/b)
 <sd|f> ...   111036 b.        0 skpd (  0.0%)     0.023 s. (  0.000 ms/b)
 <sd|g> ...    61362 b.        0 skpd (  0.0%)     0.020 s. (  0.000 ms/b)
 <sd|h> ...     8766 b.        0 skpd (  0.0%)     0.019 s. (  0.002 ms/b)
 <sd|i> ...     5844 b.        0 skpd (  0.0%)     0.015 s. (  0.003 ms/b)
 <sf|s> ...   265118 b.        0 skpd (  0.0%)     0.021 s. (  0.000 ms/b)
 <sf|p> ...   224632 b.        0 skpd (  0.0%)     0.028 s. (  0.000 ms/b)
 <sf|d> ...   165862 b.        0 skpd (  0.0%)     0.032 s. (  0.000 ms/b)
 <sf|f> ...    49628 b.        0 skpd (  0.0%)     0.015 s. (  0.000 ms/b)
 <sf|g> ...    27426 b.        0 skpd (  0.0%)     0.012 s. (  0.000 ms/b)
 <sf|h> ...     3918 b.        0 skpd (  0.0%)     0.007 s. (  0.002 ms/b)
 <sf|i> ...     2612 b.        0 skpd (  0.0%)     0.011 s. (  0.004 ms/b)
 <sg|s> ...    20097 b.        0 skpd (  0.0%)     0.010 s. (  0.001 ms/b)
 <sg|p> ...    17028 b.        0 skpd (  0.0%)     0.003 s. (  0.000 ms/b)
 <sg|d> ...    12573 b.        0 skpd (  0.0%)     0.004 s. (  0.000 ms/b)
 <sg|f> ...     3762 b.        0 skpd (  0.0%)     0.002 s. (  0.000 ms/b)
 <sg|g> ...     2079 b.        0 skpd (  0.0%)     0.001 s. (  0.001 ms/b)
 <sg|h> ...      297 b.        0 skpd (  0.0%)     0.001 s. (  0.003 ms/b)
 <sg|i> ...      198 b.        0 skpd (  0.0%)     0.001 s. (  0.007 ms/b)
 <pp|s> ...   374332 b.        0 skpd (  0.0%)     0.030 s. (  0.000 ms/b)
 <pp|p> ...   317168 b.        0 skpd (  0.0%)     0.048 s. (  0.000 ms/b)
 <pp|d> ...   234188 b.        0 skpd (  0.0%)     0.064 s. (  0.000 ms/b)
 <pp|f> ...    70072 b.        0 skpd (  0.0%)     0.024 s. (  0.000 ms/b)
 <pp|g> ...    38724 b.        0 skpd (  0.0%)     0.017 s. (  0.000 ms/b)
 <pp|h> ...     5532 b.        0 skpd (  0.0%)     0.010 s. (  0.002 ms/b)
 <pp|i> ...     3688 b.        0 skpd (  0.0%)     0.024 s. (  0.006 ms/b)
 <pd|s> ...   365400 b.        0 skpd (  0.0%)     0.038 s. (  0.000 ms/b)
 <pd|p> ...   309600 b.        0 skpd (  0.0%)     0.072 s. (  0.000 ms/b)
 <pd|d> ...   228600 b.        0 skpd (  0.0%)     0.079 s. (  0.000 ms/b)
 <pd|f> ...    68400 b.        0 skpd (  0.0%)     0.034 s. (  0.000 ms/b)
 <pd|g> ...    37800 b.        0 skpd (  0.0%)     0.037 s. (  0.001 ms/b)
 <pd|h> ...     5400 b.        0 skpd (  0.0%)     0.016 s. (  0.003 ms/b)
 <pd|i> ...     3600 b.        0 skpd (  0.0%)     0.033 s. (  0.009 ms/b)
 <pf|s> ...   161182 b.        0 skpd (  0.0%)     0.024 s. (  0.000 ms/b)
 <pf|p> ...   136568 b.        0 skpd (  0.0%)     0.038 s. (  0.000 ms/b)
 <pf|d> ...   100838 b.        0 skpd (  0.0%)     0.053 s. (  0.001 ms/b)
 <pf|f> ...    30172 b.        0 skpd (  0.0%)     0.025 s. (  0.001 ms/b)
 <pf|g> ...    16674 b.        0 skpd (  0.0%)     0.017 s. (  0.001 ms/b)
 <pf|h> ...     2382 b.        0 skpd (  0.0%)     0.011 s. (  0.004 ms/b)
 <pf|i> ...     1588 b.        0 skpd (  0.0%)     0.016 s. (  0.010 ms/b)
 <pg|s> ...    12180 b.        0 skpd (  0.0%)     0.011 s. (  0.001 ms/b)
 <pg|p> ...    10320 b.        0 skpd (  0.0%)     0.004 s. (  0.000 ms/b)
 <pg|d> ...     7620 b.        0 skpd (  0.0%)     0.006 s. (  0.001 ms/b)
 <pg|f> ...     2280 b.        0 skpd (  0.0%)     0.003 s. (  0.001 ms/b)
 <pg|g> ...     1260 b.        0 skpd (  0.0%)     0.002 s. (  0.002 ms/b)
 <pg|h> ...      180 b.        0 skpd (  0.0%)     0.001 s. (  0.008 ms/b)
 <pg|i> ...      120 b.        0 skpd (  0.0%)     0.002 s. (  0.017 ms/b)
 <dd|s> ...    94192 b.        0 skpd (  0.0%)     0.015 s. (  0.000 ms/b)
 <dd|p> ...    79808 b.        0 skpd (  0.0%)     0.025 s. (  0.000 ms/b)
 <dd|d> ...    58928 b.        0 skpd (  0.0%)     0.040 s. (  0.001 ms/b)
 <dd|f> ...    17632 b.        0 skpd (  0.0%)     0.015 s. (  0.001 ms/b)
 <dd|g> ...     9744 b.        0 skpd (  0.0%)     0.015 s. (  0.002 ms/b)
 <dd|h> ...     1392 b.        0 skpd (  0.0%)     0.007 s. (  0.005 ms/b)
 <dd|i> ...      928 b.        0 skpd (  0.0%)     0.015 s. (  0.016 ms/b)
 <df|s> ...    79779 b.        0 skpd (  0.0%)     0.019 s. (  0.000 ms/b)
 <df|p> ...    67596 b.        0 skpd (  0.0%)     0.040 s. (  0.001 ms/b)
 <df|d> ...    49911 b.        0 skpd (  0.0%)     0.044 s. (  0.001 ms/b)
 <df|f> ...    14934 b.        0 skpd (  0.0%)     0.020 s. (  0.001 ms/b)
 <df|g> ...     8253 b.        0 skpd (  0.0%)     0.017 s. (  0.002 ms/b)
 <df|h> ...     1179 b.        0 skpd (  0.0%)     0.009 s. (  0.008 ms/b)
 <df|i> ...      786 b.        0 skpd (  0.0%)     0.022 s. (  0.028 ms/b)
 <dg|s> ...     6496 b.        0 skpd (  0.0%)     0.002 s. (  0.000 ms/b)
 <dg|p> ...     5504 b.        0 skpd (  0.0%)     0.004 s. (  0.001 ms/b)
 <dg|d> ...     4064 b.        0 skpd (  0.0%)     0.005 s. (  0.001 ms/b)
 <dg|f> ...     1216 b.        0 skpd (  0.0%)     0.003 s. (  0.002 ms/b)
 <dg|g> ...      672 b.        0 skpd (  0.0%)     0.002 s. (  0.003 ms/b)
 <dg|h> ...       96 b.        0 skpd (  0.0%)     0.001 s. (  0.012 ms/b)
 <dg|i> ...       64 b.        0 skpd (  0.0%)     0.002 s. (  0.026 ms/b)
 <ff|s> ...    19285 b.        0 skpd (  0.0%)     0.007 s. (  0.000 ms/b)
 <ff|p> ...    16340 b.        0 skpd (  0.0%)     0.012 s. (  0.001 ms/b)
 <ff|d> ...    12065 b.        0 skpd (  0.0%)     0.022 s. (  0.002 ms/b)
 <ff|f> ...     3610 b.        0 skpd (  0.0%)     0.009 s. (  0.002 ms/b)
 <ff|g> ...     1995 b.        0 skpd (  0.0%)     0.008 s. (  0.004 ms/b)
 <ff|h> ...      285 b.        0 skpd (  0.0%)     0.004 s. (  0.014 ms/b)
 <ff|i> ...      190 b.        0 skpd (  0.0%)     0.006 s. (  0.030 ms/b)
 <fg|s> ...     2842 b.        0 skpd (  0.0%)     0.001 s. (  0.001 ms/b)
 <fg|p> ...     2408 b.        0 skpd (  0.0%)     0.003 s. (  0.001 ms/b)
 <fg|d> ...     1778 b.        0 skpd (  0.0%)     0.004 s. (  0.002 ms/b)
 <fg|f> ...      532 b.        0 skpd (  0.0%)     0.002 s. (  0.004 ms/b)
 <fg|g> ...      294 b.        0 skpd (  0.0%)     0.002 s. (  0.006 ms/b)
 <fg|h> ...       42 b.        0 skpd (  0.0%)     0.001 s. (  0.021 ms/b)
 <fg|i> ...       28 b.        0 skpd (  0.0%)     0.001 s. (  0.044 ms/b)
 <gg|s> ...      203 b.        0 skpd (  0.0%)     0.000 s. (  0.001 ms/b)
 <gg|p> ...      172 b.        0 skpd (  0.0%)     0.000 s. (  0.002 ms/b)
 <gg|d> ...      127 b.        0 skpd (  0.0%)     0.000 s. (  0.003 ms/b)
 <gg|f> ...       38 b.        0 skpd (  0.0%)     0.000 s. (  0.006 ms/b)
 <gg|g> ...       21 b.        0 skpd (  0.0%)     0.000 s. (  0.010 ms/b)
 <gg|h> ...        3 b.        0 skpd (  0.0%)     0.000 s. (  0.039 ms/b)
 <gg|i> ...        2 b.        0 skpd (  0.0%)     0.000 s. (  0.090 ms/b)



                                      INTEGRAL STATISTICS

Integral type statistics:
 Number of integrals retained            ...  220257730 

Storage statistics:

Prescreening statistics:
 Total number of shell triples           ...   18186146 
 Number of skipped shell triples         ...          0 (  0.0%)

Timings:
 Total evaluation time                   ...  55.112 sec (  0.919 min)
 One electron matrix time                ...   2.612 sec (  0.044 min) =  4.7%
 Schwartz matrix evaluation time         ...   0.536 sec (  0.009 min) =  1.0%
 Two index repulsion integral time       ...   0.483 sec (  0.008 min) =  0.9%
 Cholesky decomposition of V             ...   1.500 sec (  0.025 min) =  2.7%
 Three index repulsion integral time     ...  49.860 sec (  0.831 min) = 90.5%



           ************************************************************
           *        Program running with 8 parallel MPI-processes     *
           *              working on a shared directory               *
           ************************************************************
-------------------------------------------------------------------------------
                                 ORCA SCF
-------------------------------------------------------------------------------

------------
SCF SETTINGS
------------
Hamiltonian:
 Density Functional     Method          .... DFT(GTOs)
 Exchange Functional    Exchange        .... B88
   X-Alpha parameter    XAlpha          ....  0.666667
   Becke's b parameter  XBeta           ....  0.004200
 Correlation Functional Correlation     .... LYP
 LDA part of GGA corr.  LDAOpt          .... VWN-3
 Gradients option       PostSCFGGA      .... off
 Hybrid DFT is turned on
   Fraction HF Exchange ScalHFX         ....  0.200000
   Scaling of DF-GGA-X  ScalDFX         ....  0.720000
   Scaling of DF-GGA-C  ScalDFC         ....  0.810000
   Scaling of DF-LDA-C  ScalLDAC        ....  1.000000
   Perturbative correction              ....  0.000000
   Density functional embedding theory  .... OFF
   NL short-range parameter             ....  4.800000
 RI-approximation to the Coulomb term is turned on
   Number of auxiliary basis functions  .... 1868
   RI-JK (J+K treated both via RI)      .... on


General Settings:
 Integral files         IntName         .... MsrP-4S-opt7
 Hartree-Fock type      HFTyp           .... UHF
 Total Charge           Charge          ....   -1
 Multiplicity           Mult            ....    2
 Number of Electrons    NEL             ....  165
 Basis Dimension        Dim             ....  655
 Nuclear Repulsion      ENuc            ....   1776.6937745972 Eh

Convergence Acceleration:
 DIIS                   CNVDIIS         .... on
   Start iteration      DIISMaxIt       ....    12
   Startup error        DIISStart       ....  0.200000
   # of expansion vecs  DIISMaxEq       ....     5
   Bias factor          DIISBfac        ....   1.050
   Max. coefficient     DIISMaxC        ....  10.000
 Newton-Raphson         CNVNR           .... off
 SOSCF                  CNVSOSCF        .... off
 Level Shifting         CNVShift        .... on
   Level shift para.    LevelShift      ....    0.2500
   Turn off err/grad.   ShiftErr        ....    0.0010
 Zerner damping         CNVZerner       .... off
 Static damping         CNVDamp         .... on
   Fraction old density DampFac         ....    0.7000
   Max. Damping (<1)    DampMax         ....    0.9800
   Min. Damping (>=0)   DampMin         ....    0.0000
   Turn off err/grad.   DampErr         ....    0.1000
 Fernandez-Rico         CNVRico         .... off

SCF Procedure:
 Maximum # iterations   MaxIter         ....   125
 SCF integral mode      SCFMode         .... Conventional
 Integral Threshold     Thresh          ....  2.500e-11 Eh
 Primitive CutOff       TCut            ....  2.500e-12 Eh
 Integral Buffer length BufferLength    .... 1048576
 Integral index format  IndFormat       ....     1
 Integral value format  ValFormat       ....     0
 Integral Storage       Thresh          ....  2.500e-11 Eh

Convergence Tolerance:
 Convergence Check Mode ConvCheckMode   .... Total+1el-Energy
 Convergence forced     ConvForced      .... 0
 Energy Change          TolE            ....  1.000e-08 Eh
 1-El. energy change                    ....  1.000e-05 Eh
 DIIS Error             TolErr          ....  5.000e-07


Diagonalization of the overlap matrix:
Smallest eigenvalue                        ... 6.330e-05
Time for diagonalization                   ...    0.148 sec
Threshold for overlap eigenvalues          ... 1.000e-08
Number of eigenvalues below threshold      ... 0
Time for construction of square roots      ...    0.474 sec
Total time needed                          ...    0.624 sec

-------------------
DFT GRID GENERATION
-------------------

General Integration Accuracy     IntAcc      ...  4.340
Radial Grid Type                 RadialGrid  ... Gauss-Chebyshev
Angular Grid (max. acc.)         AngularGrid ... Lebedev-110
Angular grid pruning method      GridPruning ... 3 (G Style)
Weight generation scheme         WeightScheme... Becke
Basis function cutoff            BFCut       ...    1.0000e-11
Integration weight cutoff        WCut        ...    1.0000e-14
Grids for H and He will be reduced by one unit

SpecialGrid => Setting IntAcc for atom type =  42 to   7.0000
# of grid points (after initial pruning)     ...  43400 (   0.0 sec)
# of grid points (after weights+screening)   ...  39706 (   0.1 sec)
nearest neighbour list constructed           ...    0.0 sec
Grid point re-assignment to atoms done       ...    0.0 sec
Grid point division into batches done        ...    0.0 sec
Reduced shell lists constructed in    0.5 sec

Total number of grid points                  ...    39706
Total number of batches                      ...      637
Average number of points per batch           ...       62
Average number of grid points per atom       ...     1281
Average number of shells per batch           ...   122.79 (48.53%)
Average number of basis functions per batch  ...   330.81 (50.51%)
Average number of large shells per batch     ...    85.58 (69.70%)
Average number of large basis fcns per batch ...   234.94 (71.02%)
Average number of aux-shells per batch       ...   122.79 (21.69%)
Average number of aux functions per batch    ...   330.81 (17.71%)
Maximum spatial batch extension              ...  16.60, 21.85, 23.21 au
Average spatial batch extension              ...   0.28,  0.30,  0.29 au

Time for grid setup =    1.215 sec

------------------------------
INITIAL GUESS: MODEL POTENTIAL
------------------------------
Loading Hartree-Fock densities                     ... done
  calling /opt/local/orca/4.2.1/orca MsrP-4S-opt7_atom42.inp > MsrP-4S-opt7_atom42.out in order to generate an atomic fitting density for atom 0 (Mo with ECP) on-the-fly... 
    atom 0 (Mo), assumed electronic state with S=5: 1s2 2s2 2p6 3s2 3p6 4s2 3d10 4p6 5s2 4d4           ... done
Calculating cut-offs                               ... done
Setting up the integral package                    ... done
Initializing the effective Hamiltonian             ... done
Starting the Coulomb interaction                   ... done (   0.3 sec)
Reading the grid                                   ... done
Mapping shells                                     ... done
Starting the XC term evaluation                    ... done (   0.3 sec)
  promolecular density results
     # of electrons  =    191.995265068
     EX              =   -288.440891891
     EC              =     -7.624312783
     EX+EC           =   -296.065204675
Transforming the Hamiltonian                       ... done (   0.0 sec)
Diagonalizing the Hamiltonian                      ... done (   0.1 sec)
Back transforming the eigenvectors                 ... done (   0.2 sec)
Now organizing SCF variables                       ... done
                      ------------------
                      INITIAL GUESS DONE (   9.0 sec)
                      ------------------

 InCore treatment chosen:
   Memory dedicated               ...    4000 MB
   Memory needed                  ...    320 MB
   Number of tiny    integrals    ... 34895456
   Number of small   integrals    ... 59342730
   Number of regular integrals    ... 126019544

--------------
SCF ITERATIONS
--------------
ITER       Energy         Delta-E        Max-DP      RMS-DP      [F,P]     Damp
  0  -2179.9925575245   0.000000000000 0.05773201  0.00046310  0.4162489 0.7000
  1  -2180.0667484626  -0.074190938133 0.05907428  0.00040309  0.2875664 0.7000
  2  -2180.2344117161  -0.167663253441 0.02341348  0.00023638  0.2000244 0.7000
                               ***Turning on DIIS***
  3  -2180.4222529735  -0.187841257401 0.00919478  0.00012226  0.1334183 0.7000
  4  -2180.5301398629  -0.107886889434 0.02925013  0.00023849  0.0903153 0.0000
  5  -2180.6549640139  -0.124824150982 0.01249027  0.00009692  0.0516913 0.0000
  6  -2180.6649201860  -0.009956172143 0.00252070  0.00003422  0.0116006 0.0000
  7  -2180.6653539699  -0.000433783850 0.00132114  0.00001493  0.0033775 0.0000
  8  -2180.6654376210  -0.000083651085 0.00084050  0.00000727  0.0016823 0.0000
  9  -2180.6654722532  -0.000034632170 0.00212339  0.00001169  0.0006122 0.0000
 10  -2180.6655108725  -0.000038619396 0.00039909  0.00000230  0.0010725 0.0000
 11  -2180.6655165317  -0.000005659152 0.00081132  0.00000420  0.0004762 0.0000
 12  -2180.6655225100  -0.000005978344 0.00047258  0.00000341  0.0005774 0.0000
 13  -2180.6655267917  -0.000004281695 0.00028208  0.00000176  0.0003154 0.0000
 14  -2180.6655276028  -0.000000811041 0.00003717  0.00000036  0.0001735 0.0000
 15  -2180.6655276446  -0.000000041822 0.00009767  0.00000069  0.0000889 0.0000
 16  -2180.6655277557  -0.000000111141 0.00002868  0.00000020  0.0000614 0.0000
 17  -2180.6655277519   0.000000003832 0.00002723  0.00000018  0.0000396 0.0000
 18  -2180.6655277660  -0.000000014114 0.00000783  0.00000006  0.0000297 0.0000
 19  -2180.6655277693  -0.000000003277 0.00000925  0.00000007  0.0000101 0.0000
 20  -2180.6655277719  -0.000000002603 0.00000474  0.00000003  0.0000042 0.0000
 21  -2180.6655277727  -0.000000000764 0.00000187  0.00000001  0.0000041 0.0000
 22  -2180.6655277727  -0.000000000039 0.00000365  0.00000003  0.0000015 0.0000
 23  -2180.6655277730  -0.000000000286 0.00000082  0.00000001  0.0000018 0.0000
                 **** Energy Check signals convergence ****

               *****************************************************
               *                     SUCCESS                       *
               *           SCF CONVERGED AFTER  24 CYCLES          *
               *****************************************************

Setting up the final grid:

General Integration Accuracy     IntAcc      ...  4.670
Radial Grid Type                 RadialGrid  ... Gauss-Chebyshev
Angular Grid (max. acc.)         AngularGrid ... Lebedev-302
Angular grid pruning method      GridPruning ... 3 (G Style)
Weight generation scheme         WeightScheme... Becke
Basis function cutoff            BFCut       ...    1.0000e-11
Integration weight cutoff        WCut        ...    1.0000e-14
Grids for H and He will be reduced by one unit

SpecialGrid => Setting IntAcc for atom type =  42 to   7.0000
# of grid points (after initial pruning)     ... 163978 (   0.0 sec)
# of grid points (after weights+screening)   ... 147669 (   0.4 sec)
nearest neighbour list constructed           ...    0.0 sec
Grid point re-assignment to atoms done       ...    0.0 sec
Grid point division into batches done        ...    0.7 sec
Reduced shell lists constructed in    1.1 sec

Total number of grid points                  ...   147669
Total number of batches                      ...     2325
Average number of points per batch           ...       63
Average number of grid points per atom       ...     4764
Average number of shells per batch           ...   112.86 (44.61%)
Average number of basis functions per batch  ...   302.00 (46.11%)
Average number of large shells per batch     ...    76.92 (68.16%)
Average number of large basis fcns per batch ...   210.41 (69.67%)
Maximum spatial batch extension              ...  20.19, 18.98, 19.69 au
Average spatial batch extension              ...   0.23,  0.24,  0.23 au

Final grid set up in    9.8 sec
Final integration                            ... done (   5.8 sec)
Change in XC energy                          ...     0.000904827
Integrated number of electrons               ...   165.000294155
Previous integrated no of electrons          ...   165.005637258

----------------
TOTAL SCF ENERGY
----------------

Total Energy       :        -2180.66462295 Eh          -59338.90112 eV

Components:
Nuclear Repulsion  :         1776.69377460 Eh           48346.29548 eV
Electronic Energy  :        -3957.35839754 Eh         -107685.19661 eV
One Electron Energy:        -6584.02396357 Eh         -179160.40039 eV
Two Electron Energy:         2626.66556603 Eh           71475.20378 eV

Virial components:
Potential Energy   :        -4311.08227277 Eh         -117310.51259 eV
Kinetic Energy     :         2130.41764982 Eh           57971.61147 eV
Virial Ratio       :            2.02358550


DFT components:
N(Alpha)           :       83.000145743043 electrons
N(Beta)            :       82.000148412219 electrons
N(Total)           :      165.000294155263 electrons
E(X)               :     -141.038887325217 Eh       
E(C)               :       -7.689947329636 Eh       
E(XC)              :     -148.728834654853 Eh       
DFET-embed. en.    :        0.000000000000 Eh       

---------------
SCF CONVERGENCE
---------------

  Last Energy change         ...   -9.1404e-11  Tolerance :   1.0000e-08
  Last MAX-Density change    ...    9.6149e-07  Tolerance :   1.0000e-07
  Last RMS-Density change    ...    6.5125e-09  Tolerance :   5.0000e-09
  Last DIIS Error            ...    3.4441e-07  Tolerance :   5.0000e-07

             **** THE GBW FILE WAS UPDATED (MsrP-4S-opt7.gbw) ****
             **** DENSITY FILE WAS UPDATED (MsrP-4S-opt7.scfp) ****
             **** ENERGY FILE WAS UPDATED (MsrP-4S-opt7.en.tmp) ****
----------------------
UHF SPIN CONTAMINATION
----------------------

Warning: in a DFT calculation there is little theoretical justification to 
         calculate <S**2> as in Hartree-Fock theory. We will do it anyways
         but you should keep in mind that the values have only limited relevance

Expectation value of <S**2>     :     0.756250
Ideal value S*(S+1) for S=0.5   :     0.750000
Deviation                       :     0.006250

             **** THE GBW FILE WAS UPDATED (MsrP-4S-opt7.gbw) ****
             **** DENSITY FILE WAS UPDATED (MsrP-4S-opt7.scfp) ****
----------------
ORBITAL ENERGIES
----------------
                 SPIN UP ORBITALS
  NO   OCC          E(Eh)            E(eV) 
   0   1.0000     -88.710473     -2413.9347 
   1   1.0000     -88.709143     -2413.8985 
   2   1.0000     -88.709109     -2413.8976 
   3   1.0000     -88.707433     -2413.8520 
   4   1.0000     -19.043366      -518.1963 
   5   1.0000     -19.014235      -517.4036 
   6   1.0000     -14.208917      -386.6443 
   7   1.0000     -10.170929      -276.7651 
   8   1.0000     -10.119773      -275.3730 
   9   1.0000     -10.095924      -274.7241 
  10   1.0000     -10.078248      -274.2431 
  11   1.0000     -10.076782      -274.2032 
  12   1.0000     -10.076593      -274.1980 
  13   1.0000     -10.070476      -274.0316 
  14   1.0000     -10.069571      -274.0070 
  15   1.0000      -7.787311      -211.9035 
  16   1.0000      -7.786736      -211.8879 
  17   1.0000      -7.786423      -211.8794 
  18   1.0000      -7.784724      -211.8331 
  19   1.0000      -5.749976      -156.4648 
  20   1.0000      -5.749457      -156.4507 
  21   1.0000      -5.749179      -156.4431 
  22   1.0000      -5.747208      -156.3895 
  23   1.0000      -5.745114      -156.3325 
  24   1.0000      -5.744872      -156.3259 
  25   1.0000      -5.744703      -156.3213 
  26   1.0000      -5.744568      -156.3176 
  27   1.0000      -5.743369      -156.2850 
  28   1.0000      -5.742621      -156.2647 
  29   1.0000      -5.742410      -156.2589 
  30   1.0000      -5.741512      -156.2345 
  31   1.0000      -2.507974       -68.2454 
  32   1.0000      -1.522952       -41.4416 
  33   1.0000      -1.504201       -40.9314 
  34   1.0000      -1.503299       -40.9068 
  35   1.0000      -0.968340       -26.3499 
  36   1.0000      -0.804859       -21.9013 
  37   1.0000      -0.776297       -21.1241 
  38   1.0000      -0.718145       -19.5417 
  39   1.0000      -0.676322       -18.4037 
  40   1.0000      -0.642591       -17.4858 
  41   1.0000      -0.641052       -17.4439 
  42   1.0000      -0.596659       -16.2359 
  43   1.0000      -0.591920       -16.1070 
  44   1.0000      -0.556972       -15.1560 
  45   1.0000      -0.515180       -14.0188 
  46   1.0000      -0.508953       -13.8493 
  47   1.0000      -0.496842       -13.5198 
  48   1.0000      -0.469190       -12.7673 
  49   1.0000      -0.428823       -11.6689 
  50   1.0000      -0.378884       -10.3100 
  51   1.0000      -0.375310       -10.2127 
  52   1.0000      -0.362215        -9.8564 
  53   1.0000      -0.355037        -9.6610 
  54   1.0000      -0.342294        -9.3143 
  55   1.0000      -0.327072        -8.9001 
  56   1.0000      -0.323903        -8.8139 
  57   1.0000      -0.317869        -8.6497 
  58   1.0000      -0.317296        -8.6341 
  59   1.0000      -0.311544        -8.4775 
  60   1.0000      -0.308764        -8.4019 
  61   1.0000      -0.297663        -8.0998 
  62   1.0000      -0.288800        -7.8586 
  63   1.0000      -0.281878        -7.6703 
  64   1.0000      -0.265741        -7.2312 
  65   1.0000      -0.262000        -7.1294 
  66   1.0000      -0.256294        -6.9741 
  67   1.0000      -0.251758        -6.8507 
  68   1.0000      -0.238909        -6.5010 
  69   1.0000      -0.226280        -6.1574 
  70   1.0000      -0.214124        -5.8266 
  71   1.0000      -0.196342        -5.3427 
  72   1.0000      -0.187220        -5.0945 
  73   1.0000      -0.177008        -4.8166 
  74   1.0000      -0.169805        -4.6206 
  75   1.0000      -0.160163        -4.3583 
  76   1.0000      -0.147769        -4.0210 
  77   1.0000      -0.135359        -3.6833 
  78   1.0000      -0.131237        -3.5712 
  79   1.0000      -0.125272        -3.4088 
  80   1.0000      -0.117044        -3.1849 
  81   1.0000      -0.083186        -2.2636 
  82   1.0000      -0.075530        -2.0553 
  83   0.0000       0.054637         1.4868 
  84   0.0000       0.067919         1.8482 
  85   0.0000       0.071303         1.9403 
  86   0.0000       0.101728         2.7682 
  87   0.0000       0.103514         2.8167 
  88   0.0000       0.118257         3.2179 
  89   0.0000       0.126810         3.4507 
  90   0.0000       0.129226         3.5164 
  91   0.0000       0.136132         3.7043 
  92   0.0000       0.153359         4.1731 
  93   0.0000       0.156505         4.2587 
  94   0.0000       0.159119         4.3298 
  95   0.0000       0.162659         4.4262 
  96   0.0000       0.163482         4.4486 
  97   0.0000       0.178531         4.8581 
  98   0.0000       0.185083         5.0364 
  99   0.0000       0.190462         5.1827 
 100   0.0000       0.191168         5.2019 
 101   0.0000       0.199069         5.4169 
 102   0.0000       0.202377         5.5069 
 103   0.0000       0.211945         5.7673 
 104   0.0000       0.213660         5.8140 
 105   0.0000       0.216231         5.8839 
 106   0.0000       0.219207         5.9649 
 107   0.0000       0.224904         6.1200 
 108   0.0000       0.232277         6.3206 
 109   0.0000       0.242603         6.6016 
 110   0.0000       0.243659         6.6303 
 111   0.0000       0.248163         6.7529 
 112   0.0000       0.257986         7.0202 
 113   0.0000       0.264466         7.1965 
 114   0.0000       0.271627         7.3913 
 115   0.0000       0.275321         7.4919 
 116   0.0000       0.286443         7.7945 
 117   0.0000       0.296819         8.0769 
 118   0.0000       0.298742         8.1292 
 119   0.0000       0.304982         8.2990 
 120   0.0000       0.306917         8.3516 
 121   0.0000       0.314013         8.5447 
 122   0.0000       0.321685         8.7535 
 123   0.0000       0.327084         8.9004 
 124   0.0000       0.336898         9.1675 
 125   0.0000       0.338292         9.2054 
 126   0.0000       0.340480         9.2649 
 127   0.0000       0.354207         9.6385 
 128   0.0000       0.358240         9.7482 
 129   0.0000       0.360737         9.8161 
 130   0.0000       0.370220        10.0742 
 131   0.0000       0.378572        10.3015 
 132   0.0000       0.380846        10.3633 
 133   0.0000       0.389510        10.5991 
 134   0.0000       0.393671        10.7123 
 135   0.0000       0.395486        10.7617 
 136   0.0000       0.400565        10.8999 
 137   0.0000       0.409379        11.1398 
 138   0.0000       0.415450        11.3050 
 139   0.0000       0.420020        11.4293 
 140   0.0000       0.421888        11.4802 
 141   0.0000       0.430180        11.7058 
 142   0.0000       0.438764        11.9394 
 143   0.0000       0.441474        12.0131 
 144   0.0000       0.451226        12.2785 
 145   0.0000       0.452994        12.3266 
 146   0.0000       0.457857        12.4589 
 147   0.0000       0.459764        12.5108 
 148   0.0000       0.465186        12.6583 
 149   0.0000       0.468518        12.7490 
 150   0.0000       0.477476        12.9928 
 151   0.0000       0.485747        13.2179 
 152   0.0000       0.489157        13.3106 
 153   0.0000       0.493123        13.4186 
 154   0.0000       0.497516        13.5381 
 155   0.0000       0.505906        13.7664 
 156   0.0000       0.508624        13.8404 
 157   0.0000       0.511981        13.9317 
 158   0.0000       0.515004        14.0140 
 159   0.0000       0.521239        14.1836 
 160   0.0000       0.523788        14.2530 
 161   0.0000       0.530196        14.4274 
 162   0.0000       0.538309        14.6481 
 163   0.0000       0.539448        14.6791 
 164   0.0000       0.541339        14.7306 
 165   0.0000       0.547555        14.8997 
 166   0.0000       0.555292        15.1103 
 167   0.0000       0.558017        15.1844 
 168   0.0000       0.559337        15.2203 
 169   0.0000       0.563824        15.3424 
 170   0.0000       0.566922        15.4267 
 171   0.0000       0.569367        15.4933 
 172   0.0000       0.572941        15.5905 
 173   0.0000       0.576816        15.6960 
 174   0.0000       0.578497        15.7417 
 175   0.0000       0.583636        15.8815 
 176   0.0000       0.587977        15.9997 
 177   0.0000       0.593363        16.1462 
 178   0.0000       0.594926        16.1888 
 179   0.0000       0.598195        16.2777 
 180   0.0000       0.608877        16.5684 
 181   0.0000       0.618151        16.8207 
 182   0.0000       0.623685        16.9713 
 183   0.0000       0.626490        17.0477 
 184   0.0000       0.628946        17.1145 
 185   0.0000       0.637483        17.3468 
 186   0.0000       0.643125        17.5003 
 187   0.0000       0.649843        17.6831 
 188   0.0000       0.653635        17.7863 
 189   0.0000       0.661903        18.0113 
 190   0.0000       0.667172        18.1547 
 191   0.0000       0.676358        18.4046 
 192   0.0000       0.683393        18.5961 
 193   0.0000       0.694994        18.9117 
 194   0.0000       0.704742        19.1770 
 195   0.0000       0.706569        19.2267 
 196   0.0000       0.721665        19.6375 
 197   0.0000       0.728923        19.8350 
 198   0.0000       0.732148        19.9227 
 199   0.0000       0.746337        20.3088 
 200   0.0000       0.755690        20.5634 
 201   0.0000       0.759351        20.6630 
 202   0.0000       0.763589        20.7783 
 203   0.0000       0.770063        20.9545 
 204   0.0000       0.776539        21.1307 
 205   0.0000       0.779241        21.2042 
 206   0.0000       0.785572        21.3765 
 207   0.0000       0.787716        21.4348 
 208   0.0000       0.807759        21.9803 
 209   0.0000       0.810860        22.0646 
 210   0.0000       0.815292        22.1852 
 211   0.0000       0.826605        22.4931 
 212   0.0000       0.836494        22.7621 
 213   0.0000       0.845416        23.0049 
 214   0.0000       0.860064        23.4035 
 215   0.0000       0.872701        23.7474 
 216   0.0000       0.878530        23.9060 
 217   0.0000       0.884699        24.0739 
 218   0.0000       0.894144        24.3309 
 219   0.0000       0.897050        24.4100 
 220   0.0000       0.910347        24.7718 
 221   0.0000       0.921170        25.0663 
 222   0.0000       0.926852        25.2209 
 223   0.0000       0.931456        25.3462 
 224   0.0000       0.939761        25.5722 
 225   0.0000       0.944214        25.6934 
 226   0.0000       0.963665        26.2226 
 227   0.0000       0.996846        27.1255 
 228   0.0000       1.007042        27.4030 
 229   0.0000       1.020294        27.7636 
 230   0.0000       1.035895        28.1881 
 231   0.0000       1.040341        28.3091 
 232   0.0000       1.045425        28.4475 
 233   0.0000       1.054825        28.7033 
 234   0.0000       1.057542        28.7772 
 235   0.0000       1.079842        29.3840 
 236   0.0000       1.083728        29.4897 
 237   0.0000       1.094073        29.7713 
 238   0.0000       1.099350        29.9148 
 239   0.0000       1.102953        30.0129 
 240   0.0000       1.107565        30.1384 
 241   0.0000       1.113236        30.2927 
 242   0.0000       1.115268        30.3480 
 243   0.0000       1.118304        30.4306 
 244   0.0000       1.132568        30.8187 
 245   0.0000       1.144051        31.1312 
 246   0.0000       1.150792        31.3146 
 247   0.0000       1.161570        31.6079 
 248   0.0000       1.171015        31.8649 
 249   0.0000       1.181623        32.1536 
 250   0.0000       1.198158        32.6035 
 251   0.0000       1.209338        32.9078 
 252   0.0000       1.212037        32.9812 
 253   0.0000       1.215167        33.0664 
 254   0.0000       1.225365        33.3439 
 255   0.0000       1.237049        33.6618 
 256   0.0000       1.257569        34.2202 
 257   0.0000       1.259828        34.2817 
 258   0.0000       1.261338        34.3227 
 259   0.0000       1.272108        34.6158 
 260   0.0000       1.281309        34.8662 
 261   0.0000       1.301281        35.4097 
 262   0.0000       1.331481        36.2314 
 263   0.0000       1.347959        36.6798 
 264   0.0000       1.368129        37.2287 
 265   0.0000       1.373139        37.3650 
 266   0.0000       1.377059        37.4717 
 267   0.0000       1.387470        37.7550 
 268   0.0000       1.390307        37.8322 
 269   0.0000       1.409587        38.3568 
 270   0.0000       1.426530        38.8178 
 271   0.0000       1.428586        38.8738 
 272   0.0000       1.464526        39.8518 
 273   0.0000       1.476650        40.1817 
 274   0.0000       1.490587        40.5609 
 275   0.0000       1.500133        40.8207 
 276   0.0000       1.529077        41.6083 
 277   0.0000       1.535202        41.7750 
 278   0.0000       1.543038        41.9882 
 279   0.0000       1.547913        42.1208 
 280   0.0000       1.550258        42.1847 
 281   0.0000       1.558275        42.4028 
 282   0.0000       1.574395        42.8415 
 283   0.0000       1.576865        42.9087 
 284   0.0000       1.582167        43.0529 
 285   0.0000       1.592094        43.3231 
 286   0.0000       1.595377        43.4124 
 287   0.0000       1.603498        43.6334 
 288   0.0000       1.607185        43.7337 
 289   0.0000       1.613845        43.9149 
 290   0.0000       1.621539        44.1243 
 291   0.0000       1.625149        44.2225 
 292   0.0000       1.631741        44.4019 
 293   0.0000       1.637243        44.5516 
 294   0.0000       1.637932        44.5704 
 295   0.0000       1.645245        44.7694 
 296   0.0000       1.648737        44.8644 
 297   0.0000       1.653208        44.9861 
 298   0.0000       1.662044        45.2265 
 299   0.0000       1.666967        45.3605 
 300   0.0000       1.669957        45.4418 
 301   0.0000       1.675946        45.6048 
 302   0.0000       1.678901        45.6852 
 303   0.0000       1.684202        45.8295 
 304   0.0000       1.693846        46.0919 
 305   0.0000       1.696399        46.1614 
 306   0.0000       1.701321        46.2953 
 307   0.0000       1.702191        46.3190 
 308   0.0000       1.711957        46.5847 
 309   0.0000       1.713105        46.6160 
 310   0.0000       1.719226        46.7825 
 311   0.0000       1.722081        46.8602 
 312   0.0000       1.723114        46.8883 
 313   0.0000       1.734373        47.1947 
 314   0.0000       1.742056        47.4037 
 315   0.0000       1.748182        47.5704 
 316   0.0000       1.752513        47.6883 
 317   0.0000       1.757333        47.8195 
 318   0.0000       1.761596        47.9355 
 319   0.0000       1.773048        48.2471 
 320   0.0000       1.781995        48.4905 
 321   0.0000       1.784673        48.5634 
 322   0.0000       1.789112        48.6842 
 323   0.0000       1.793883        48.8140 
 324   0.0000       1.800787        49.0019 
 325   0.0000       1.811607        49.2963 
 326   0.0000       1.815177        49.3935 
 327   0.0000       1.819804        49.5194 
 328   0.0000       1.830267        49.8041 
 329   0.0000       1.845212        50.2108 
 330   0.0000       1.848475        50.2996 
 331   0.0000       1.856454        50.5167 
 332   0.0000       1.864156        50.7263 
 333   0.0000       1.881862        51.2081 
 334   0.0000       1.894715        51.5578 
 335   0.0000       1.895674        51.5839 
 336   0.0000       1.902659        51.7740 
 337   0.0000       1.924492        52.3681 
 338   0.0000       1.928695        52.4825 
 339   0.0000       1.931175        52.5500 
 340   0.0000       1.939280        52.7705 
 341   0.0000       1.951200        53.0949 
 342   0.0000       1.956013        53.2258 
 343   0.0000       1.957028        53.2534 
 344   0.0000       1.964098        53.4458 
 345   0.0000       1.970837        53.6292 
 346   0.0000       1.976421        53.7812 
 347   0.0000       1.985914        54.0395 
 348   0.0000       1.997789        54.3626 
 349   0.0000       2.003316        54.5130 
 350   0.0000       2.005930        54.5841 
 351   0.0000       2.014929        54.8290 
 352   0.0000       2.017666        54.9035 
 353   0.0000       2.025892        55.1273 
 354   0.0000       2.030485        55.2523 
 355   0.0000       2.035527        55.3895 
 356   0.0000       2.041315        55.5470 
 357   0.0000       2.047430        55.7134 
 358   0.0000       2.052959        55.8638 
 359   0.0000       2.055461        55.9319 
 360   0.0000       2.060460        56.0680 
 361   0.0000       2.072595        56.3982 
 362   0.0000       2.077146        56.5220 
 363   0.0000       2.085028        56.7365 
 364   0.0000       2.092996        56.9533 
 365   0.0000       2.098773        57.1105 
 366   0.0000       2.110917        57.4410 
 367   0.0000       2.112480        57.4835 
 368   0.0000       2.125293        57.8322 
 369   0.0000       2.134415        58.0804 
 370   0.0000       2.142967        58.3131 
 371   0.0000       2.145724        58.3881 
 372   0.0000       2.156688        58.6865 
 373   0.0000       2.163196        58.8635 
 374   0.0000       2.172590        59.1192 
 375   0.0000       2.174487        59.1708 
 376   0.0000       2.191604        59.6366 
 377   0.0000       2.209157        60.1142 
 378   0.0000       2.220412        60.4205 
 379   0.0000       2.230924        60.7065 
 380   0.0000       2.233846        60.7860 
 381   0.0000       2.249145        61.2024 
 382   0.0000       2.256364        61.3988 
 383   0.0000       2.265330        61.6428 
 384   0.0000       2.285284        62.1857 
 385   0.0000       2.291044        62.3425 
 386   0.0000       2.303323        62.6766 
 387   0.0000       2.307624        62.7936 
 388   0.0000       2.324927        63.2645 
 389   0.0000       2.336894        63.5901 
 390   0.0000       2.345513        63.8247 
 391   0.0000       2.356566        64.1254 
 392   0.0000       2.368624        64.4535 
 393   0.0000       2.371341        64.5275 
 394   0.0000       2.374303        64.6081 
 395   0.0000       2.388093        64.9833 
 396   0.0000       2.395770        65.1922 
 397   0.0000       2.405669        65.4616 
 398   0.0000       2.413776        65.6822 
 399   0.0000       2.421714        65.8982 
 400   0.0000       2.434806        66.2544 
 401   0.0000       2.439487        66.3818 
 402   0.0000       2.454380        66.7871 
 403   0.0000       2.459711        66.9321 
 404   0.0000       2.469464        67.1975 
 405   0.0000       2.483848        67.5889 
 406   0.0000       2.493052        67.8394 
 407   0.0000       2.502567        68.0983 
 408   0.0000       2.513317        68.3908 
 409   0.0000       2.548010        69.3349 
 410   0.0000       2.569490        69.9194 
 411   0.0000       2.572377        69.9979 
 412   0.0000       2.576927        70.1217 
 413   0.0000       2.591219        70.5107 
 414   0.0000       2.599737        70.7424 
 415   0.0000       2.618495        71.2529 
 416   0.0000       2.636227        71.7354 
 417   0.0000       2.646734        72.0213 
 418   0.0000       2.649739        72.1031 
 419   0.0000       2.653152        72.1959 
 420   0.0000       2.659756        72.3757 
 421   0.0000       2.667069        72.5746 
 422   0.0000       2.675575        72.8061 
 423   0.0000       2.678526        72.8864 
 424   0.0000       2.690502        73.2123 
 425   0.0000       2.693620        73.2971 
 426   0.0000       2.706524        73.6483 
 427   0.0000       2.711854        73.7933 
 428   0.0000       2.728129        74.2362 
 429   0.0000       2.735660        74.4411 
 430   0.0000       2.739340        74.5412 
 431   0.0000       2.748297        74.7850 
 432   0.0000       2.757971        75.0482 
 433   0.0000       2.763062        75.1867 
 434   0.0000       2.784359        75.7663 
 435   0.0000       2.790615        75.9365 
 436   0.0000       2.807448        76.3945 
 437   0.0000       2.810838        76.4868 
 438   0.0000       2.812767        76.5393 
 439   0.0000       2.828518        76.9679 
 440   0.0000       2.840388        77.2909 
 441   0.0000       2.855103        77.6913 
 442   0.0000       2.865733        77.9806 
 443   0.0000       2.872428        78.1627 
 444   0.0000       2.880002        78.3688 
 445   0.0000       2.887851        78.5824 
 446   0.0000       2.904277        79.0294 
 447   0.0000       2.911189        79.2175 
 448   0.0000       2.918176        79.4076 
 449   0.0000       2.928346        79.6843 
 450   0.0000       2.934901        79.8627 
 451   0.0000       2.945126        80.1410 
 452   0.0000       2.949558        80.2616 
 453   0.0000       2.959622        80.5354 
 454   0.0000       2.971233        80.8514 
 455   0.0000       2.980980        81.1166 
 456   0.0000       3.014712        82.0345 
 457   0.0000       3.026579        82.3574 
 458   0.0000       3.036664        82.6318 
 459   0.0000       3.055823        83.1532 
 460   0.0000       3.070039        83.5400 
[...]
      pz      :     3.504209  p :    10.166151
      px      :     3.125629
      py      :     3.536314
      dz2     :     0.025942  d :     0.191414
      dxz     :     0.054559
      dyz     :     0.014305
      dx2y2   :     0.055153
      dxy     :     0.041455
      f0      :     0.002440  f :     0.025324
      f+1     :     0.005018
      f-1     :     0.000644
      f+2     :     0.005177
      f-2     :     0.004041
      f+3     :     0.003974
      f-3     :     0.004030
 27 C s       :     2.921160  s :     2.921160
      pz      :     1.112863  p :     3.315632
      px      :     1.079975
      py      :     1.122794
      dz2     :     0.086968  d :     0.283211
      dxz     :     0.056403
      dyz     :     0.016616
      dx2y2   :     0.042062
      dxy     :     0.081163
      f0      :     0.002883  f :     0.021636
      f+1     :     0.003687
      f-1     :     0.001762
      f+2     :     0.003633
      f-2     :     0.003825
      f+3     :     0.003202
      f-3     :     0.002644
 28 H s       :     0.841669  s :     0.841669
      pz      :     0.014924  p :     0.063100
      px      :     0.024025
      py      :     0.024151
 29 H s       :     0.835863  s :     0.835863
      pz      :     0.013988  p :     0.066538
      px      :     0.016103
      py      :     0.036447
 30 H s       :     0.831481  s :     0.831481
      pz      :     0.036790  p :     0.064370
      px      :     0.013848
      py      :     0.013732

SPIN
  0 Mos       :     0.005058  s :     0.005058
      pz      :    -0.000313  p :     0.009587
      px      :     0.004982
      py      :     0.004918
      dz2     :     0.022503  d :     0.803429
      dxz     :     0.026190
      dyz     :     0.028984
      dx2y2   :     0.703585
      dxy     :     0.022166
      f0      :    -0.000304  f :    -0.000825
      f+1     :    -0.000462
      f-1     :     0.000359
      f+2     :     0.000079
      f-2     :     0.000133
      f+3     :     0.000221
      f-3     :    -0.000851
      g0      :    -0.000274  g :    -0.001086
      g+1     :    -0.000224
      g-1     :    -0.000224
      g+2     :     0.000007
      g-2     :     0.000040
      g+3     :    -0.000057
      g-3     :    -0.000087
      g+4     :    -0.000250
      g-4     :    -0.000016
  1 O s       :    -0.000082  s :    -0.000082
      pz      :    -0.012491  p :    -0.045647
      px      :    -0.017435
      py      :    -0.015721
      dz2     :     0.000157  d :     0.002075
      dxz     :     0.000378
      dyz     :     0.000429
      dx2y2   :     0.001091
      dxy     :     0.000019
      f0      :     0.000026  f :     0.000198
      f+1     :     0.000031
      f-1     :     0.000031
      f+2     :     0.000107
      f-2     :     0.000002
      f+3     :    -0.000000
      f-3     :     0.000000
  2 S s       :     0.000095  s :     0.000095
      pz      :     0.003257  p :    -0.008110
      px      :    -0.005956
      py      :    -0.005412
      dz2     :     0.000241  d :     0.011016
      dxz     :     0.001548
      dyz     :     0.001370
      dx2y2   :     0.007646
      dxy     :     0.000210
      f0      :     0.000033  f :     0.001656
      f+1     :     0.000019
      f-1     :     0.000029
      f+2     :     0.000310
      f-2     :     0.000064
      f+3     :     0.000201
      f-3     :     0.000999
  3 S s       :     0.000358  s :     0.000358
      pz      :     0.000588  p :     0.001777
      px      :    -0.001936
      py      :     0.003125
      dz2     :     0.000230  d :     0.017327
      dxz     :     0.003078
      dyz     :     0.002128
      dx2y2   :     0.009396
      dxy     :     0.002495
      f0      :     0.000044  f :     0.001678
      f+1     :     0.000038
      f-1     :     0.000018
      f+2     :     0.000381
      f-2     :     0.000056
      f+3     :     0.000600
      f-3     :     0.000542
  4 C s       :     0.000361  s :     0.000361
      pz      :    -0.000810  p :     0.004359
      px      :     0.003329
      py      :     0.001840
      dz2     :     0.000028  d :    -0.000178
      dxz     :    -0.000341
      dyz     :    -0.000051
      dx2y2   :    -0.000263
      dxy     :     0.000449
      f0      :     0.000005  f :     0.000035
      f+1     :    -0.000003
      f-1     :     0.000007
      f+2     :    -0.000026
      f-2     :     0.000008
      f+3     :     0.000045
      f-3     :    -0.000002
  5 C s       :     0.001256  s :     0.001256
      pz      :     0.000127  p :     0.008712
      px      :     0.005306
      py      :     0.003280
      dz2     :     0.000062  d :    -0.000712
      dxz     :    -0.000300
      dyz     :    -0.000258
      dx2y2   :    -0.000678
      dxy     :     0.000462
      f0      :     0.000001  f :    -0.000108
      f+1     :    -0.000004
      f-1     :     0.000003
      f+2     :    -0.000035
      f-2     :    -0.000007
      f+3     :    -0.000055
      f-3     :    -0.000012
  6 C s       :    -0.000008  s :    -0.000008
      pz      :     0.000032  p :    -0.000130
      px      :    -0.000026
      py      :    -0.000136
      dz2     :     0.000021  d :     0.000013
      dxz     :     0.000010
      dyz     :     0.000006
      dx2y2   :    -0.000009
      dxy     :    -0.000015
      f0      :     0.000001  f :    -0.000003
      f+1     :     0.000000
      f-1     :    -0.000008
      f+2     :     0.000001
      f-2     :    -0.000000
      f+3     :     0.000004
      f-3     :    -0.000001
  7 C s       :    -0.000108  s :    -0.000108
      pz      :    -0.000019  p :    -0.000097
      px      :     0.000175
      py      :    -0.000253
      dz2     :    -0.000034  d :     0.000126
      dxz     :     0.000045
      dyz     :    -0.000018
      dx2y2   :     0.000111
      dxy     :     0.000023
      f0      :     0.000001  f :     0.000098
      f+1     :     0.000001
      f-1     :     0.000001
      f+2     :    -0.000001
      f-2     :    -0.000001
      f+3     :     0.000070
      f-3     :     0.000027
  8 O s       :    -0.000001  s :    -0.000001
      pz      :    -0.000028  p :    -0.000064
      px      :    -0.000011
      py      :    -0.000025
      dz2     :    -0.000003  d :    -0.000007
      dxz     :    -0.000000
      dyz     :    -0.000000
      dx2y2   :    -0.000002
      dxy     :    -0.000001
      f0      :    -0.000000  f :    -0.000001
      f+1     :    -0.000000
      f-1     :    -0.000000
      f+2     :    -0.000000
      f-2     :    -0.000000
      f+3     :    -0.000000
      f-3     :    -0.000000
  9 N s       :     0.000040  s :     0.000040
      pz      :     0.000240  p :     0.000861
      px      :     0.000391
      py      :     0.000229
      dz2     :    -0.000003  d :     0.000028
      dxz     :     0.000010
      dyz     :     0.000009
      dx2y2   :    -0.000027
      dxy     :     0.000039
      f0      :    -0.000000  f :     0.000001
      f+1     :     0.000000
      f-1     :    -0.000001
      f+2     :    -0.000001
      f-2     :     0.000001
      f+3     :     0.000001
      f-3     :    -0.000000
 10 H s       :     0.000320  s :     0.000320
      pz      :     0.000003  p :     0.000038
      px      :    -0.000003
      py      :     0.000038
 11 C s       :     0.001359  s :     0.001359
      pz      :     0.000455  p :     0.008768
      px      :     0.001159
      py      :     0.007155
      dz2     :     0.000756  d :     0.000920
      dxz     :    -0.000138
      dyz     :     0.000874
      dx2y2   :    -0.000320
      dxy     :    -0.000251
      f0      :     0.000000  f :     0.000039
      f+1     :     0.000007
      f-1     :     0.000023
      f+2     :     0.000046
      f-2     :    -0.000006
      f+3     :     0.000010
      f-3     :    -0.000041
 12 H s       :    -0.000017  s :    -0.000017
      pz      :     0.000004  p :     0.000018
      px      :     0.000010
      py      :     0.000004
 13 H s       :     0.000087  s :     0.000087
      pz      :     0.000049  p :     0.000185
      px      :     0.000102
      py      :     0.000034
 14 H s       :     0.000440  s :     0.000440
      pz      :     0.000036  p :     0.000257
      px      :    -0.000025
      py      :     0.000246
 15 S s       :     0.000438  s :     0.000438
      pz      :     0.007702  p :     0.022410
      px      :     0.020092
      py      :    -0.005384
      dz2     :     0.000121  d :     0.014774
      dxz     :     0.000910
      dyz     :     0.000165
      dx2y2   :     0.012979
      dxy     :     0.000599
      f0      :     0.000054  f :     0.002060
      f+1     :     0.000020
      f-1     :     0.000015
      f+2     :     0.000756
      f-2     :     0.000076
      f+3     :     0.000900
      f-3     :     0.000238
 16 H s       :     0.000003  s :     0.000003
      pz      :     0.000009  p :     0.000005
      px      :    -0.000003
      py      :    -0.000001
 17 C s       :    -0.000119  s :    -0.000119
      pz      :     0.000007  p :    -0.000344
      px      :    -0.000224
      py      :    -0.000127
      dz2     :    -0.000033  d :     0.000235
      dxz     :     0.000074
      dyz     :    -0.000115
      dx2y2   :     0.000337
      dxy     :    -0.000028
      f0      :    -0.000001  f :     0.000059
      f+1     :    -0.000001
      f-1     :     0.000002
      f+2     :     0.000007
      f-2     :    -0.000005
      f+3     :     0.000024
      f-3     :     0.000031
 18 H s       :     0.000049  s :     0.000049
      pz      :     0.000002  p :    -0.000014
      px      :    -0.000015
      py      :    -0.000002
 19 H s       :     0.000084  s :     0.000084
      pz      :    -0.000004  p :     0.000001
      px      :     0.000002
      py      :     0.000002
 20 H s       :    -0.000039  s :    -0.000039
      pz      :    -0.000004  p :    -0.000011
      px      :    -0.000004
      py      :    -0.000003
 21 C s       :    -0.000109  s :    -0.000109
      pz      :    -0.000008  p :    -0.000148
      px      :    -0.000119
      py      :    -0.000020
      dz2     :    -0.000021  d :     0.000317
      dxz     :    -0.000033
      dyz     :    -0.000010
      dx2y2   :     0.000422
      dxy     :    -0.000042
      f0      :     0.000001  f :     0.000086
      f+1     :     0.000003
      f-1     :     0.000001
      f+2     :     0.000003
      f-2     :    -0.000001
      f+3     :     0.000058
      f-3     :     0.000020
 22 H s       :    -0.000018  s :    -0.000018
      pz      :     0.000000  p :    -0.000008
      px      :    -0.000006
      py      :    -0.000002
 23 H s       :     0.000219  s :     0.000219
      pz      :    -0.000001  p :     0.000003
      px      :     0.000001
      py      :     0.000003
 24 H s       :    -0.000115  s :    -0.000115
      pz      :    -0.000000  p :    -0.000014
      px      :    -0.000015
      py      :     0.000001
 25 H s       :    -0.000017  s :    -0.000017
      pz      :    -0.000000  p :    -0.000017
      px      :     0.000000
      py      :    -0.000017
 26 S s       :     0.002910  s :     0.002910
      pz      :     0.042516  p :     0.095560
      px      :     0.010974
      py      :     0.042070
      dz2     :     0.000289  d :     0.014554
      dxz     :     0.000108
      dyz     :     0.000563
      dx2y2   :     0.012923
      dxy     :     0.000671
      f0      :     0.000005  f :     0.001930
      f+1     :     0.000135
      f-1     :     0.000017
      f+2     :     0.000867
      f-2     :     0.000014
      f+3     :     0.000207
      f-3     :     0.000686
 27 C s       :     0.000805  s :     0.000805
      pz      :     0.000102  p :     0.006829
      px      :     0.005953
      py      :     0.000774
      dz2     :     0.006158  d :     0.006922
      dxz     :     0.000372
      dyz     :     0.000216
      dx2y2   :     0.000056
      dxy     :     0.000120
      f0      :     0.000007  f :     0.000357
      f+1     :     0.000240
      f-1     :    -0.000003
      f+2     :     0.000019
      f-2     :     0.000000
      f+3     :     0.000018
      f-3     :     0.000078
 28 H s       :     0.000558  s :     0.000558
      pz      :    -0.000019  p :     0.000152
      px      :     0.000167
      py      :     0.000004
 29 H s       :     0.001590  s :     0.001590
      pz      :     0.000038  p :     0.000142
      px      :     0.000150
      py      :    -0.000045
 30 H s       :     0.002491  s :     0.002491
      pz      :     0.000002  p :     0.000037
      px      :     0.000019
      py      :     0.000016


                      *****************************
                      * MAYER POPULATION ANALYSIS *
                      *****************************

  NA   - Mulliken gross atomic population
  ZA   - Total nuclear charge
  QA   - Mulliken gross atomic charge
  VA   - Mayer's total valence
  BVA  - Mayer's bonded valence
  FA   - Mayer's free valence

  ATOM       NA         ZA         QA         VA         BVA        FA
  0 Mo    13.2808    14.0000     0.7192     6.6713     6.0869     0.5845
  1 O      8.5579     8.0000    -0.5579     2.2548     2.2538     0.0010
  2 S     16.2935    16.0000    -0.2935     2.3535     2.3526     0.0008
  3 S     16.3246    16.0000    -0.3246     2.3511     2.3496     0.0015
  4 C      5.9226     6.0000     0.0774     3.7837     3.7836     0.0001
  5 C      5.9104     6.0000     0.0896     3.7833     3.7831     0.0002
  6 C      5.8958     6.0000     0.1042     3.9871     3.9871     0.0000
  7 C      5.8681     6.0000     0.1319     3.7878     3.7878     0.0000
  8 O      8.3187     8.0000    -0.3187     2.1196     2.1196     0.0000
  9 N      7.5254     7.0000    -0.5254     2.9296     2.9296     0.0000
 10 H      0.9366     1.0000     0.0634     0.9965     0.9965     0.0000
 11 C      6.1928     6.0000    -0.1928     3.8821     3.8820     0.0002
 12 H      0.7817     1.0000     0.2183     0.9776     0.9776     0.0000
 13 H      0.8863     1.0000     0.1137     0.9569     0.9568     0.0000
 14 H      0.8814     1.0000     0.1186     0.9726     0.9726     0.0000
 15 S     16.3420    16.0000    -0.3420     2.2241     2.2204     0.0037
 16 H      0.7961     1.0000     0.2039     0.9607     0.9607     0.0000
 17 C      6.3422     6.0000    -0.3422     3.8801     3.8801     0.0000
 18 H      0.9278     1.0000     0.0722     0.9786     0.9786     0.0000
 19 H      0.8948     1.0000     0.1052     0.9702     0.9702     0.0000
 20 H      0.8950     1.0000     0.1050     0.9674     0.9674    -0.0000
 21 C      6.3463     6.0000    -0.3463     3.8840     3.8840     0.0000
 22 H      0.8963     1.0000     0.1037     0.9664     0.9664     0.0000
 23 H      0.8952     1.0000     0.1048     0.9674     0.9674     0.0000
 24 H      0.9230     1.0000     0.0770     0.9772     0.9772     0.0000
 25 H      0.9073     1.0000     0.0927     0.9845     0.9845     0.0000
 26 S     16.2970    16.0000    -0.2970     2.2779     2.2587     0.0192
 27 C      6.3041     6.0000    -0.3041     3.8881     3.8879     0.0002
 28 H      0.9026     1.0000     0.0974     0.9546     0.9546     0.0000
 29 H      0.8790     1.0000     0.1210     0.9815     0.9815     0.0000
 30 H      0.8747     1.0000     0.1253     0.9544     0.9544     0.0000

  Mayer bond orders larger than 0.100000
B(  0-Mo,  1-O ) :   1.9375 B(  0-Mo,  2-S ) :   1.0057 B(  0-Mo,  3-S ) :   0.9993 
B(  0-Mo, 15-S ) :   0.9663 B(  0-Mo, 26-S ) :   1.0748 B(  2-S ,  4-C ) :   1.0216 
B(  3-S ,  5-C ) :   1.0311 B(  4-C ,  5-C ) :   1.7724 B(  4-C , 17-C ) :   0.9125 
B(  5-C , 21-C ) :   0.9083 B(  6-C ,  7-C ) :   0.9433 B(  6-C ,  8-O ) :   2.0449 
B(  6-C , 25-H ) :   0.9555 B(  7-C ,  9-N ) :   1.0509 B(  7-C , 10-H ) :   0.9334 
B(  7-C , 11-C ) :   0.9363 B(  9-N , 12-H ) :   0.9107 B(  9-N , 16-H ) :   0.9420 
B( 11-C , 13-H ) :   0.9693 B( 11-C , 14-H ) :   0.9380 B( 11-C , 15-S ) :   1.0054 
B( 17-C , 18-H ) :   0.9808 B( 17-C , 19-H ) :   0.9698 B( 17-C , 20-H ) :   0.9670 
B( 21-C , 22-H ) :   0.9672 B( 21-C , 23-H ) :   0.9677 B( 21-C , 24-H ) :   0.9819 
B( 26-S , 27-C ) :   1.0108 B( 27-C , 28-H ) :   0.9573 B( 27-C , 29-H ) :   0.9565 
B( 27-C , 30-H ) :   0.9634 

-------
TIMINGS
-------

Total SCF time: 0 days 0 hours 5 min 35 sec 

Total time                  ....     335.939 sec
Sum of individual times     ....     323.814 sec  ( 96.4%)

Fock matrix formation       ....     307.732 sec  ( 91.6%)
  Coulomb formation         ....     249.117 sec  ( 81.0% of F)
  XC integration            ....      44.696 sec  ( 14.5% of F)
    Basis function eval.    ....       0.879 sec  (  2.0% of XC)
    Density eval.           ....       2.014 sec  (  4.5% of XC)
    XC-Functional eval.     ....       0.089 sec  (  0.2% of XC)
    XC-Potential eval.      ....       4.723 sec  ( 10.6% of XC)
Diagonalization             ....       4.419 sec  (  1.3%)
Density matrix formation    ....       1.074 sec  (  0.3%)
Population analysis         ....       0.597 sec  (  0.2%)
Initial guess               ....       0.579 sec  (  0.2%)
Orbital Transformation      ....       0.000 sec  (  0.0%)
Orbital Orthonormalization  ....       0.422 sec  (  0.1%)
DIIS solution               ....       5.758 sec  (  1.7%)
Grid generation             ....       3.655 sec  (  1.1%)

-------------------------   --------------------
FINAL SINGLE POINT ENERGY     -2180.664626013588
-------------------------   --------------------

                                *** OPTIMIZATION RUN DONE ***

                            ***************************************
                            *     ORCA property calculations      *
                            ***************************************

                                    ---------------------
                                    Active property flags
                                    ---------------------
   (+) Dipole Moment


------------------------------------------------------------------------------
                       ORCA ELECTRIC PROPERTIES CALCULATION
------------------------------------------------------------------------------

Dipole Moment Calculation                       ... on
Quadrupole Moment Calculation                   ... off
Polarizability Calculation                      ... off
GBWName                                         ... MsrP-4S-opt7.gbw
Electron density file                           ... MsrP-4S-opt7.scfp
The origin for moment calculation is the CENTER OF MASS  = (-1.958923,  5.760094 -2.936046)

-------------
DIPOLE MOMENT
-------------
                                X             Y             Z
Electronic contribution:     10.41919     -60.53347      36.18636
Nuclear contribution   :    -11.00527      60.71837     -35.95101
                        -----------------------------------------
Total Dipole Moment    :     -0.58608       0.18491       0.23535
                        -----------------------------------------
Magnitude (a.u.)       :      0.65808
Magnitude (Debye)      :      1.67271



--------------------
Rotational spectrum 
--------------------
 
Rotational constants in cm-1:     0.012868     0.006316     0.004738 
Rotational constants in MHz :   385.776620   189.357315   142.049266 

 Dipole components along the rotational axes: 
x,y,z [a.u.] :    -0.210658     0.511160     0.356947 
x,y,z [Debye]:    -0.535450     1.299266     0.907286 

 

Timings for individual modules:

Sum of individual times         ...     4734.027 sec (=  78.900 min)
GTO integral calculation        ...      363.082 sec (=   6.051 min)   7.7 %
SCF iterations                  ...     3819.671 sec (=  63.661 min)  80.7 %
SCF Gradient evaluation         ...      548.794 sec (=   9.147 min)  11.6 %
Geometry relaxation             ...        2.480 sec (=   0.041 min)   0.1 %
                             ****ORCA TERMINATED NORMALLY****
TOTAL RUN TIME: 0 days 1 hours 18 minutes 58 seconds 350 msec
