/*--------------------------------*- C++ -*----------------------------------*\
| =========                 |                                                 |
| \\      /  F ield         | OpenFOAM: The Open Source CFD Toolbox           |
|  \\    /   O peration     | Version:  v2012                                 |
|   \\  /    A nd           | Website:  www.openfoam.com                      |
|    \\/     M anipulation  |                                                 |
\*---------------------------------------------------------------------------*/
FoamFile
{
    version     2.0;
    format      ascii;
    class       volScalarField;
    location    "0.2";
    object      p;
}
// * * * * * * * * * * * * * * * * * * * * * * * * * * * * * * * * * * * * * //

dimensions      [0 2 -2 0 0 0 0];


internalField   nonuniform List<scalar> 
2500
(
-5.69299e-06
-0.000574953
-0.00231268
-0.00493318
-0.00802047
-0.0112452
-0.0143503
-0.017136
-0.0194509
-0.0211844
-0.0222587
-0.0226235
-0.0222508
-0.0211319
-0.0192741
-0.0166985
-0.0134378
-0.00953518
-0.00504237
-1.89512e-05
0.00546881
0.0113488
0.017544
0.0239728
0.0305507
0.0371901
0.0438017
0.0502956
0.056582
0.0625724
0.0681809
0.0733258
0.0779307
0.0819264
0.0852525
0.0878595
0.0897102
0.0907824
0.0910709
0.0905898
0.0893756
0.0874901
0.0850241
0.0821024
0.0788898
0.0755971
0.0724878
0.0698892
0.0682077
0.0677007
0.000555039
-8.89171e-06
-0.00144826
-0.00354115
-0.00599352
-0.0085643
-0.0110513
-0.0132879
-0.0151417
-0.0165118
-0.0173242
-0.0175285
-0.0170944
-0.0160091
-0.0142745
-0.0119057
-0.00892903
-0.00538054
-0.00130488
0.00324583
0.00821295
0.0135322
0.0191344
0.0249464
0.0308917
0.0368916
0.0428655
0.0487325
0.0544118
0.0598243
0.0648935
0.0695468
0.0737173
0.0773446
0.080377
0.0827729
0.0845025
0.0855498
0.0859147
0.0856145
0.0846867
0.0831909
0.0812119
0.078862
0.076284
0.0736532
0.0711765
0.0690933
0.0676958
0.0671932
0.00229197
0.00142946
-1.979e-05
-0.00191032
-0.00405457
-0.00626963
-0.00839451
-0.0102926
-0.0118519
-0.0129838
-0.0136218
-0.0137191
-0.0132463
-0.0121894
-0.0105481
-0.00833409
-0.00556945
-0.00228555
0.00147812
0.00567493
0.010252
0.0151509
0.0203088
0.0256589
0.0311311
0.0366532
0.0421517
0.0475521
0.0527808
0.0577654
0.0624364
0.0667279
0.0705794
0.0739369
0.0767544
0.0789954
0.0806347
0.0816598
0.0820724
0.0818905
0.0811498
0.0799052
0.078233
0.0762316
0.0740227
0.0717508
0.0695815
0.0676988
0.066295
0.0655144
0.00494033
0.00353616
0.00184701
-7.29059e-05
-0.00213992
-0.00421243
-0.0061609
-0.00787573
-0.00926476
-0.0102534
-0.0107846
-0.0108173
-0.0103255
-0.00929654
-0.00772975
-0.00563532
-0.00303299
4.89486e-05
0.00357463
0.00750148
0.011781
0.0163595
0.0211788
0.0261772
0.0312899
0.0364497
0.0415884
0.0466369
0.0515267
0.0561906
0.0605641
0.0645863
0.068201
0.0713586
0.0740166
0.0761418
0.0777112
0.0787134
0.0791503
0.0790383
0.0784092
0.0773119
0.0758126
0.0739958
0.0719632
0.0698329
0.0677402
0.06583
0.0641963
0.0629009
0.00811927
0.00604459
0.0039881
0.00191164
-0.000204354
-0.00225204
-0.00412834
-0.00574841
-0.00703935
-0.00794083
-0.00840592
-0.00840082
-0.00790398
-0.0069053
-0.00540507
-0.00341313
-0.000947867
0.00196455
0.00529102
0.0089922
0.0130232
0.0173343
0.0218716
0.0265774
0.0313914
0.0362511
0.0410924
0.0458509
0.0504623
0.0548637
0.0589945
0.0627976
0.0662204
0.0692159
0.0717444
0.0737745
0.0752839
0.0762616
0.0767081
0.0766367
0.0760749
0.0750641
0.0736606
0.0719347
0.0699697
0.0678599
0.0657156
0.0636501
0.0616599
0.0597183
0.0115402
0.00874058
0.00624069
0.00391928
0.00166125
-0.000452144
-0.00233931
-0.00393718
-0.00519056
-0.00605271
-0.00648707
-0.00646742
-0.00597754
-0.00501067
-0.00356898
-0.00166282
0.00068986
0.00346421
0.00662909
0.0101477
0.0139779
0.0180734
0.0223835
0.0268543
0.0314291
0.036049
0.0406537
0.0451824
0.0495742
0.0537695
0.0577109
0.0613438
0.064618
0.0674885
0.069917
0.0718726
0.0733332
0.0742866
0.0747309
0.0746762
0.0741441
0.0731688
0.0717966
0.0700851
0.0681005
0.065917
0.063625
0.0613133
0.0588879
0.0562427
0.0149828
0.0114457
0.00845988
0.00583266
0.00336388
0.00111494
-0.000849282
-0.00248422
-0.00375034
-0.00461343
-0.00504685
-0.00503202
-0.00455836
-0.00362305
-0.0022307
-0.000392953
0.00187201
0.00453991
0.00758087
0.0109598
0.014637
0.0185683
0.0227061
0.0269992
0.0313939
0.0358343
0.0402629
0.0446217
0.0488526
0.0528982
0.0567031
0.0602147
0.0633841
0.0661672
0.068526
0.0704294
0.0718543
0.0727863
0.0732209
0.0731637
0.0726307
0.0716487
0.0702547
0.0684946
0.0664205
0.0640896
0.0615774
0.0589553
0.0560488
0.0526837
0.018276
0.0140102
0.0105188
0.00754752
0.00482119
0.00238687
0.000296798
-0.00141988
-0.00273718
-0.0036321
-0.00408722
-0.00409135
-0.00363957
-0.00273327
-0.00137995
0.000407017
0.00260863
0.0052006
0.00815368
0.011434
0.0150033
0.0188195
0.022837
0.0270068
0.0312775
0.0355955
0.0399055
0.0441514
0.048277
0.0522266
0.0559459
0.0593833
0.0624904
0.0652231
0.0675428
0.0694173
0.0708215
0.0717387
0.0721607
0.0720885
0.0715324
0.0705121
0.0690559
0.0671997
0.0649837
0.0624514
0.0596681
0.0566933
0.0532816
0.0492012
0.0212858
0.0163094
0.0123063
0.00896851
0.00595413
0.0033002
0.00104967
-0.000781002
-0.00217742
-0.00312645
-0.00361906
-0.00365099
-0.00322288
-0.00234036
-0.00101405
0.000740564
0.00290327
0.0054493
0.00834954
0.0115708
0.0150758
0.0188238
0.0227707
0.0268693
0.0310697
0.0353199
0.0395663
0.0437541
0.0478282
0.0517337
0.0554169
0.0588263
0.0619131
0.0646325
0.0669446
0.0688153
0.0702171
0.0711298
0.0715415
0.0714483
0.0708549
0.0697742
0.0682269
0.0662401
0.0638441
0.0610722
0.0579827
0.0546277
0.0506998
0.0459169
0.0239056
0.0182386
0.0137248
0.0100083
0.00668675
0.00379056
0.00135604
-0.000610818
-0.00210542
-0.00312328
-0.00366289
-0.00372642
-0.0033198
-0.00245288
-0.0011395
0.000602528
0.00275146
0.00528169
0.00816383
0.0113648
0.0148481
0.0185737
0.0224984
0.0265763
0.0307585
0.0349942
0.0392306
0.0434138
0.047489
0.0514016
0.0550977
0.0585252
0.0616342
0.0643786
0.0667165
0.068611
0.0700317
0.0709547
0.0713636
0.0712497
0.0706122
0.0694577
0.0677999
0.0656586
0.0630562
0.0600178
0.0565979
0.0528452
0.0483962
0.0429242
0.0260473
0.0197078
0.0146876
0.0105864
0.00694659
0.00379411
0.00116068
-0.0009563
-0.00256064
-0.00365537
-0.00424575
-0.00433987
-0.00394866
-0.00308608
-0.00176921
-1.83376e-05
0.00214304
0.00468817
0.00758707
0.0108065
0.0143101
0.0180582
0.0220084
0.0261151
0.0303303
0.0346038
0.038883
0.0431143
0.0472428
0.0512136
0.0549718
0.0584642
0.0616394
0.0644488
0.066848
0.0687971
0.0702619
0.0712143
0.0716335
0.0715056
0.0708241
0.0695899
0.0678106
0.0654998
0.0626733
0.0593502
0.0555836
0.0514211
0.0464482
0.0402972
0.0276351
0.0206374
0.0151156
0.0106277
0.0066639
0.00324746
0.000406976
-0.00186737
-0.0035866
-0.00476039
-0.00540012
-0.0055193
-0.0051336
-0.00426095
-0.00292169
-0.00113864
0.00106276
0.00365443
0.00660548
0.00988221
0.013448
0.0172635
0.0212861
0.0254708
0.0297698
0.0341327
0.0385073
0.0428394
0.0470737
0.0511541
0.0550246
0.05863
0.0619168
0.0648336
0.0673328
0.0693707
0.0709089
0.0719149
0.0723627
0.0722333
0.0715147
0.0702021
0.0682977
0.0658097
0.0627486
0.059129
0.0550043
0.0504234
0.0449233
0.0380976
0.0286005
0.0209544
0.0149351
0.0100605
0.00577061
0.0020872
-0.000963236
-0.00339669
-0.00523057
-0.00648049
-0.00716338
-0.00729786
-0.00690407
-0.00600382
-0.00462064
-0.00277999
-0.000509336
0.00216169
0.00520111
0.00857451
0.0122448
0.0161724
0.0203146
0.0246264
0.0290597
0.033564
0.0380865
0.0425725
0.0469655
0.0512081
0.0552424
0.0590109
0.0624571
0.0655266
0.0681677
0.0703326
0.0719782
0.0730669
0.0735674
0.0734551
0.0727125
0.0713294
0.0693027
0.066636
0.0633355
0.0594124
0.0549217
0.0499149
0.0438822
0.0363796
0.0288791
0.0205895
0.0140753
0.00881485
0.00419923
0.000249259
-0.00300988
-0.00559968
-0.00754331
-0.00886184
-0.0095774
-0.00971341
-0.00929435
-0.00834578
-0.00689447
-0.00496852
-0.00259756
0.000187108
0.00335225
0.0068625
0.0106802
0.0147651
0.0190743
0.0235624
0.0281809
0.0328788
0.0376026
0.0422963
0.0469023
0.051361
0.0556126
0.0595964
0.0632529
0.0665235
0.0693524
0.071687
0.0734788
0.0746847
0.0752676
0.0751971
0.0744499
0.0730104
0.0708704
0.0680291
0.0644891
0.0602591
0.0553966
0.0499566
0.043383
0.0351942
0.0284078
0.0194749
0.0124665
0.00682129
0.00188174
-0.0023318
-0.00579503
-0.00853457
-0.010579
-0.0119544
-0.0126881
-0.0128081
-0.012343
-0.0113222
-0.00977576
-0.00773442
-0.00523006
-0.0022958
0.00103374
0.00472212
0.00873082
0.013019
0.0175433
0.0222575
0.0271128
0.0320573
0.0370364
0.0419929
0.0468674
0.0515982
0.0561227
0.0603771
0.0642978
0.0678221
0.0708891
0.0734408
0.0754229
0.0767863
0.0774874
0.0774896
0.0767635
0.0752877
0.0730491
0.0700425
0.0662672
0.0617297
0.0564909
0.0506101
0.0434838
0.0345925
0.0271224
0.0175423
0.0100381
0.00400911
-0.00125149
-0.00572354
-0.00938344
-0.0122627
-0.0143951
-0.015812
-0.0165454
-0.0166279
-0.0160925
-0.0149724
-0.0133008
-0.0111114
-0.00843838
-0.0053167
-0.00178252
0.00212652
0.006371
0.0109093
0.0156974
0.0206885
0.0258328
0.0310778
0.0363676
0.0416434
0.0468438
0.0519048
0.0567605
0.0613438
0.0655865
0.0694212
0.0727815
0.0756032
0.0778257
0.0793929
0.0802545
0.0803668
0.0796939
0.0782082
0.0758913
0.0727336
0.068731
0.0638883
0.0582696
0.0519394
0.0442453
0.0346282
0.0249566
0.014721
0.00671769
0.000305291
-0.00527274
-0.00999649
-0.013843
-0.0168488
-0.019053
-0.0204919
-0.0212026
-0.0212226
-0.020589
-0.019339
-0.0175093
-0.0151364
-0.0122569
-0.00890795
-0.00512715
-0.000953416
0.00357281
0.00840914
0.0135108
0.0188303
0.0243171
0.0299175
0.0355746
0.0412278
0.0468136
0.0522654
0.0575138
0.0624877
0.0671144
0.071321
0.0750349
0.0781853
0.0807045
0.0825287
0.0835999
0.0838668
0.0832862
0.0818235
0.0794545
0.0761651
0.0719473
0.0668038
0.0608028
0.0540136
0.0457329
0.0353602
0.0218401
0.010937
0.00242893
-0.00436679
-0.0102579
-0.0152249
-0.0192456
-0.0223617
-0.0246176
-0.0260554
-0.0267171
-0.0266453
-0.0258817
-0.0244677
-0.0224434
-0.0198486
-0.0167224
-0.0131039
-0.0090326
-0.00454854
0.000306794
0.00549021
0.0109562
0.0166567
0.0225404
0.0285526
0.0346351
0.0407256
0.0467584
0.0526641
0.0583698
0.0638
0.0688771
0.0735222
0.0776559
0.0812002
0.0840792
0.0862208
0.0875584
0.088032
0.08759
0.0861903
0.0838021
0.0804055
0.0759887
0.0705519
0.0641671
0.0569087
0.0480193
0.0368547
0.0176975
0.0061112
-0.00290904
-0.0100885
-0.0162877
-0.0214878
-0.0256675
-0.028874
-0.0311581
-0.0325672
-0.0331493
-0.0329522
-0.0320227
-0.0304064
-0.0281476
-0.0252892
-0.021873
-0.0179404
-0.0135325
-0.00869068
-0.0034574
0.00212344
0.0080058
0.014141
0.020477
0.0269585
0.0335258
0.0401154
0.046659
0.0530846
0.0593155
0.0652718
0.0708704
0.0760259
0.0806519
0.0846621
0.0879716
0.0904991
0.0921681
0.0929088
0.0926603
0.0913715
0.0890037
0.0855309
0.0809361
0.0752164
0.0684475
0.060709
0.0511857
0.039187
0.0124477
0.00015869
-0.00938313
-0.016947
-0.0234484
-0.0288694
-0.03319
-0.0364637
-0.0387478
-0.0400961
-0.0405631
-0.0402023
-0.0390662
-0.0372052
-0.0346677
-0.0315003
-0.0277477
-0.0234535
-0.0186606
-0.0134117
-0.00775008
-0.00172018
0.00463154
0.011256
0.018101
0.0251103
0.0322234
0.0393754
0.0464959
0.05351
0.0603375
0.0668938
0.0730899
0.0788338
0.0840312
0.0885867
0.0924058
0.0953963
0.0974709
0.0985487
0.0985575
0.0974363
0.0951369
0.0916256
0.0868793
0.080891
0.0737398
0.0655101
0.0553246
0.0424434
0.00600227
-0.00701273
-0.0170875
-0.0250367
-0.0318333
-0.0374606
-0.0419006
-0.0452137
-0.0474647
-0.0487148
-0.0490254
-0.0484571
-0.0470683
-0.0449148
-0.04205
-0.038524
-0.0343849
-0.0296787
-0.02445
-0.0187426
-0.0126005
-0.00606861
0.000806557
0.00797593
0.0153871
0.0229838
0.0307049
0.0384841
0.0462495
0.0539235
0.0614223
0.0686565
0.0755315
0.0819477
0.0878026
0.0929909
0.0974073
0.100948
0.103513
0.105008
0.105348
0.104461
0.102288
0.0987839
0.0939191
0.0876812
0.080152
0.0714203
0.0605417
0.0467236
-0.0017353
-0.0155038
-0.0261249
-0.0344605
-0.0415437
-0.0473597
-0.0518933
-0.0552128
-0.0573916
-0.0584996
-0.0586062
-0.0577798
-0.0560859
-0.0535865
-0.0503401
-0.0464013
-0.0418216
-0.0366494
-0.0309311
-0.0247117
-0.0180355
-0.0109474
-0.00349382
0.00427667
0.0123121
0.0205564
0.0289482
0.0374208
0.0459009
0.0543084
0.0625564
0.0705507
0.0781907
0.0853696
0.0919754
0.0978927
0.103004
0.107192
0.110343
0.112347
0.113106
0.112532
0.110552
0.107111
0.102169
0.0957063
0.0878067
0.078563
0.0669581
0.0521427
-0.0108709
-0.0254254
-0.0366084
-0.0453312
-0.0526905
-0.0586739
-0.0632699
-0.0665563
-0.0686166
-0.0695306
-0.0693776
-0.0682348
-0.0661759
-0.0632702
-0.0595819
-0.0551706
-0.0500915
-0.0443956
-0.038131
-0.0313435
-0.0240777
-0.0163782
-0.00829055
0.00013769
0.00885556
0.0178078
0.0269338
0.0361666
0.0454323
0.0546489
0.0637267
0.0725671
0.0810635
0.0891015
0.0965596
0.103311
0.109225
0.11417
0.118015
0.120635
0.121912
0.121742
0.120036
0.116726
0.111757
0.105102
0.0968438
0.0870797
0.074713
0.0588335
-0.0215214
-0.0369001
-0.0486635
-0.0577739
-0.0653959
-0.0715204
-0.076141
-0.0793467
-0.081233
-0.0818918
-0.0814138
-0.0798868
-0.0773942
-0.0740134
-0.0698156
-0.0648658
-0.0592231
-0.0529414
-0.0460704
-0.0386565
-0.0307441
-0.022377
-0.0135991
-0.00445647
0.0050018
0.0147221
0.0246453
0.0347053
0.0448281
0.0549308
0.0649212
0.0746971
0.084146
0.0931458
0.101565
0.109266
0.116101
0.121925
0.126587
0.129942
0.131854
0.132196
0.130861
0.127761
0.122828
0.116021
0.107423
0.0971327
0.0839667
0.0669496
-0.0338164
-0.050065
-0.06243
-0.0719277
-0.0797953
-0.0860285
-0.0906272
-0.0936941
-0.0953398
-0.0956702
-0.0947899
-0.0927995
-0.0897938
-0.0858596
-0.081076
-0.0755142
-0.0692377
-0.0623033
-0.0547621
-0.0466609
-0.0380434
-0.0289516
-0.0194274
-0.00951424
0.000741509
0.011289
0.0220716
0.0330249
0.0440761
0.0551423
0.0661299
0.0769333
0.087435
0.0975054
0.107003
0.115777
0.123665
0.130503
0.13612
0.140349
0.143029
0.144009
0.143158
0.140367
0.135546
0.12864
0.119728
0.108909
0.0949043
0.0766685
-0.0479011
-0.0650741
-0.0780658
-0.0879494
-0.0960405
-0.102341
-0.10686
-0.109718
-0.111042
-0.110956
-0.109581
-0.107034
-0.103423
-0.0988454
-0.0933898
-0.0871341
-0.0801466
-0.0724872
-0.0642083
-0.0553563
-0.0459735
-0.0360996
-0.0257735
-0.0150349
-0.00392615
0.00750576
0.0192078
0.0311189
0.0431687
0.0552753
0.0673449
0.0792699
0.0909282
0.102183
0.112884
0.122865
0.131951
0.139953
0.146681
0.151941
0.155544
0.15731
0.157078
0.154713
0.150099
0.143161
0.13397
0.122624
0.10774
0.0881957
-0.0639389
-0.0821026
-0.0957506
-0.106017
-0.114302
-0.120618
-0.124986
-0.127546
-0.128449
-0.12784
-0.125862
-0.122648
-0.118323
-0.112999
-0.106773
-0.0997315
-0.0919482
-0.0834856
-0.0743969
-0.064728
-0.0545188
-0.0438057
-0.0326231
-0.021006
-0.00899135
0.00337921
0.0160579
0.0289884
0.0421041
0.0553263
0.0685622
0.0817033
0.0946246
0.107183
0.119219
0.130552
0.140991
0.150326
0.15834
0.164809
0.169513
0.172238
0.172786
0.170989
0.166699
0.159813
0.150392
0.138528
0.122722
0.10177
-0.0821163
-0.101352
-0.115691
-0.126333
-0.134774
-0.141039
-0.145164
-0.147317
-0.147677
-0.146416
-0.143702
-0.13969
-0.134526
-0.128334
-0.121227
-0.113297
-0.104624
-0.0952736
-0.0852992
-0.0747449
-0.0636474
-0.0520384
-0.0399467
-0.0274009
-0.0144312
-0.00107188
0.0126361
0.026643
0.0408883
0.0552978
0.0697818
0.084233
0.0985247
0.112509
0.126018
0.138858
0.15082
0.161672
0.171167
0.179051
0.185063
0.188948
0.190469
0.189411
0.185588
0.178862
0.169275
0.15691
0.140139
0.117668
-0.102649
-0.123056
-0.138128
-0.149134
-0.15768
-0.163806
-0.167573
-0.169182
-0.168847
-0.166776
-0.163166
-0.158201
-0.152048
-0.144851
-0.136734
-0.127801
-0.118135
-0.107806
-0.0968651
-0.0853549
-0.0733071
-0.0607472
-0.0476969
-0.0341764
-0.0202073
-0.00581479
0.00896909
0.0241036
0.039536
0.0551992
0.0710091
0.0868616
0.102631
0.118166
0.133291
0.147802
0.161471
0.174042
0.185238
0.194768
0.202326
0.207611
0.210332
0.210222
0.207045
0.200614
0.190948
0.178112
0.160331
0.136213
-0.125788
-0.147491
-0.163344
-0.174696
-0.183277
-0.189151
-0.19241
-0.193301
-0.192084
-0.189008
-0.184309
-0.178206
-0.17089
-0.162526
-0.153255
-0.143189
-0.132418
-0.121011
-0.10902
-0.0964822
-0.0834229
-0.0698598
-0.0558055
-0.0412698
-0.0262636
-0.0108009
0.00509778
0.0214028
0.038072
0.0550482
0.0722552
0.0895954
0.106946
0.124156
0.141045
0.157399
0.172972
0.187484
0.200627
0.212065
0.221446
0.228411
0.232606
0.233698
0.231386
0.225425
0.215794
0.202531
0.183696
0.157787
-0.151832
-0.174987
-0.191679
-0.203347
-0.211867
-0.217338
-0.219897
-0.21985
-0.217514
-0.213194
-0.207174
-0.199709
-0.191025
-0.18131
-0.17072
-0.159378
-0.147378
-0.134789
-0.121661
-0.108023
-0.0938934
-0.0792791
-0.0641812
-0.0485972
-0.0325246
-0.0159638
0.00107859
0.0185868
0.0365324
0.0548708
0.0735375
0.0924443
0.111475
0.130483
0.149285
0.167661
0.185347
0.202042
0.217402
0.231048
0.242571
0.251545
0.257542
0.260149
0.258978
0.253708
0.244262
0.230641
0.210706
0.182838
-0.181144
-0.205945
-0.223543
-0.235478
-0.243804
-0.248672
-0.250281
-0.249013
-0.245264
-0.239405
-0.231779
-0.22269
-0.212398
-0.201119
-0.189025
-0.176248
-0.162886
-0.149006
-0.134651
-0.119843
-0.104588
-0.088881
-0.0727079
-0.0560517
-0.0388939
-0.0212187
-0.0030158
0.0157158
0.0349645
0.0547019
0.0748787
0.0954206
0.116223
0.137146
0.158009
0.178588
0.198609
0.217748
0.235626
0.251818
0.265852
0.277226
0.28542
0.289922
0.290239
0.285944
0.276886
0.263003
0.241928
0.211901
-0.214167
-0.240861
-0.25944
-0.271564
-0.279511
-0.283506
-0.283836
-0.280986
-0.275452
-0.267691
-0.258117
-0.247091
-0.234913
-0.221827
-0.208021
-0.193637
-0.178772
-0.163489
-0.14782
-0.131775
-0.115346
-0.0985127
-0.0812434
-0.0635029
-0.0452542
-0.026462
-0.00709657
0.0128633
0.0334262
0.0545837
0.0763062
0.0985376
0.121189
0.144135
0.167204
0.190171
0.212758
0.23462
0.255348
0.274467
0.291438
0.305671
0.31654
0.323409
0.325651
0.322702
0.314301
0.300298
0.278044
0.24562
-0.251455
-0.280356
-0.299996
-0.312188
-0.319494
-0.32225
-0.320866
-0.31597
-0.308183
-0.298073
-0.286139
-0.272806
-0.25842
-0.243254
-0.227511
-0.211336
-0.194821
-0.178021
-0.160954
-0.143614
-0.125974
-0.107993
-0.0896197
-0.0707976
-0.0514679
-0.031573
-0.0110603
0.0101146
0.0319842
0.0545641
0.0778491
0.101807
0.126371
0.151434
0.176842
0.20238
0.227768
0.25265
0.276591
0.299065
0.319464
0.3371
0.351222
0.361044
0.365767
0.364646
0.357268
0.343349
0.31989
0.28478
-0.293714
-0.325222
-0.346003
-0.358071
-0.364361
-0.365376
-0.361704
-0.35416
-0.343534
-0.330526
-0.315738
-0.299669
-0.282711
-0.265162
-0.247237
-0.229078
-0.210767
-0.192343
-0.173804
-0.155122
-0.136247
-0.117113
-0.0976452
-0.0777622
-0.0573802
-0.0364163
-0.0147921
0.00756355
0.0307105
0.054693
0.0795347
0.105233
0.13175
0.159008
0.186874
0.215156
0.243582
0.271796
0.29934
0.325649
0.350041
0.371722
0.389799
0.403304
0.41122
0.412566
0.40671
0.393171
0.368502
0.330349
-0.341864
-0.376487
-0.398476
-0.410113
-0.414846
-0.413429
-0.406703
-0.395738
-0.381536
-0.364961
-0.346735
-0.327433
-0.307494
-0.287235
-0.266872
-0.246536
-0.22629
-0.206147
-0.186078
-0.166026
-0.145911
-0.12564
-0.105108
-0.0842068
-0.0628234
-0.0408472
-0.0181705
0.00530748
0.0296776
0.0550167
0.0813827
0.108808
0.137294
0.166796
0.197221
0.228404
0.260099
0.291963
0.323529
0.354201
0.383231
0.409715
0.4326
0.450701
0.462731
0.467393
0.463752
0.45103
0.425184
0.383544
-0.397118
-0.435508
-0.458728
-0.469448
-0.471836
-0.467029
-0.456228
-0.440842
-0.422144
-0.401194
-0.378845
-0.355749
-0.332383
-0.309069
-0.286012
-0.263316
-0.241013
-0.219077
-0.197445
-0.17602
-0.154689
-0.133322
-0.111784
-0.0899323
-0.0676243
-0.044718
-0.0210743
0.0034402
0.0289507
0.0555708
0.0833976
0.112506
0.142941
0.174707
0.207757
0.241974
0.277154
0.312983
0.34901
0.384624
0.419023
0.4512
0.479927
0.503771
0.521108
0.530231
0.529775
0.518523
0.491609
0.445921
-0.461126
-0.504115
-0.52849
-0.537511
-0.536396
-0.52686
-0.510617
-0.489526
-0.465194
-0.438906
-0.411648
-0.38414
-0.356874
-0.330161
-0.304168
-0.278955
-0.254504
-0.230738
-0.207544
-0.184779
-0.162288
-0.1399
-0.117443
-0.0947391
-0.0716126
-0.0478878
-0.0233921
0.00204298
0.0285797
0.0563717
0.08556
0.116268
0.148594
0.182601
0.218304
0.25565
0.294499
0.334594
0.375526
0.416699
0.457285
0.496189
0.532011
0.563038
0.587239
0.602376
0.606488
0.597695
0.569963
0.51952
-0.536181
-0.58482
-0.610062
-0.616121
-0.609784
-0.593646
-0.570138
-0.541702
-0.510344
-0.477589
-0.444543
-0.411964
-0.380327
-0.349893
-0.320761
-0.292921
-0.26628
-0.240695
-0.215988
-0.191963
-0.168409
-0.145114
-0.121862
-0.0984393
-0.0746332
-0.0502336
-0.0250328
0.00117394
0.0285879
0.0574055
0.0878158
0.119996
0.154107
0.190281
0.228609
0.269126
0.31178
0.356403
0.402669
0.450041
0.497709
0.544527
0.588944
0.628957
0.662061
0.685338
0.696009
0.691205
0.663172
0.60709
-0.625569
-0.681148
-0.706539
-0.707575
-0.693451
-0.668084
-0.63489
-0.597039
-0.556985
-0.516479
-0.476701
-0.438389
-0.401944
-0.367524
-0.335122
-0.304616
-0.275817
-0.248491
-0.222384
-0.197231
-0.172764
-0.148721
-0.12484
-0.100869
-0.0765585
-0.0516622
-0.0259377
0.000856486
0.0289614
0.0586178
0.0900656
0.123541
0.159273
0.197475
0.238332
0.281986
0.328506
0.377854
0.429836
0.484035
0.539729
0.595792
0.65058
0.70182
0.746486
0.78083
0.800962
0.80255
0.775243
0.712456
-0.734176
-0.79816
-0.822112
-0.814741
-0.788984
-0.750714
-0.704651
-0.654821
-0.604125
-0.554465
-0.507
-0.462349
-0.420751
-0.382191
-0.346495
-0.313393
-0.282563
-0.253663
-0.226344
-0.200264
-0.175093
-0.150511
-0.126213
-0.101906
-0.0773027
-0.052124
-0.0260928
0.00106791
0.0296382
0.0599032
0.0921545
0.12669
0.163814
0.203829
0.24703
0.293689
0.344029
0.398189
0.45617
0.517758
0.582421
0.649165
0.71637
0.781581
0.841262
0.890699
0.924559
0.936379
0.911808
0.841163
-0.86957
-0.943277
-0.962464
-0.941087
-0.897933
-0.841668
-0.778627
-0.713736
-0.650227
-0.589984
-0.533966
-0.482518
-0.435593
-0.39291
-0.354058
-0.318571
-0.285964
-0.255762
-0.22751
-0.200782
-0.175178
-0.150324
-0.125869
-0.101479
-0.0768345
-0.0516242
-0.0255395
0.00172965
0.0304995
0.0610974
0.0938654
0.129164
0.167374
0.208896
0.254147
0.30355
0.357515
0.41641
0.480506
0.549894
0.62437
0.70325
0.785135
0.86759
0.9467
1.01675
1.07064
1.09889
1.08098
1.00163
-1.04407
-1.1276
-1.13523
-1.09058
-1.02145
-0.940244
-0.855074
-0.771588
-0.693025
-0.620911
-0.555718
-0.497295
-0.445144
-0.398602
-0.356949
-0.319472
-0.285492
-0.254386
-0.225583
-0.198568
-0.172872
-0.148068
-0.123762
-0.0995858
-0.0751889
-0.0502326
-0.0243819
0.00270134
0.031365
0.0619741
0.0949174
0.130614
0.169522
0.212141
0.259016
0.310739
0.367938
0.431258
0.50132
0.578646
0.663532
0.755853
0.854751
0.958182
1.06222
1.16034
1.24352
1.29828
1.29473
1.20732
-1.27895
-1.368
-1.3503
-1.26714
-1.15947
-1.04414
-0.930712
-0.824905
-0.729283
-0.644441
-0.569933
-0.504813
-0.447939
-0.398141
-0.354317
-0.315463
-0.28069
-0.249213
-0.220347
-0.19349
-0.168111
-0.143735
-0.11993
-0.0963007
-0.0724733
-0.048088
-0.02279
0.00377994
0.0319945
0.0622488
0.0949709
0.130632
0.16976
0.212948
0.260872
0.314296
0.374087
0.441208
0.516705
0.601658
0.697076
0.803707
0.921701
1.05003
1.1855
1.32152
1.44744
1.54507
1.571
1.48123
-1.61291
-1.69019
-1.61934
-1.47291
-1.30893
-1.14805
-0.999774
-0.868374
-0.75451
-0.65697
-0.57382
-0.502968
-0.442422
-0.3904
-0.345361
-0.305994
-0.271192
-0.24002
-0.211687
-0.185516
-0.160925
-0.137401
-0.114489
-0.0917736
-0.0688662
-0.0453957
-0.020996
0.00470439
0.0320931
0.0615854
0.0936374
0.12876
0.167538
0.210645
0.258873
0.313153
0.374589
0.444482
0.524355
0.615956
0.721218
0.842134
0.980462
1.13713
1.31101
1.49706
1.68466
1.85148
1.93681
1.86469
-2.11672
-2.13164
-1.95351
-1.70522
-1.46125
-1.24199
-1.0531
-0.894478
-0.76291
-0.654208
-0.564295
-0.489594
-0.427108
-0.374386
-0.329444
-0.29068
-0.256797
-0.226735
-0.199623
-0.174733
-0.15145
-0.129242
-0.107642
-0.0862285
-0.0646109
-0.0424166
-0.0192789
0.00517482
0.0313356
0.059626
0.090515
0.124536
0.162309
0.204566
0.252186
0.30624
0.368037
0.439197
0.521723
0.618088
0.731308
0.864967
1.02312
1.20987
1.42824
1.67792
1.9523
2.22899
2.43087
2.4319
-2.91884
-2.74201
-2.35916
-1.95418
-1.60138
-1.31134
-1.07888
-0.89456
-0.748508
-0.632216
-0.538876
-0.463209
-0.401185
-0.349728
-0.306479
-0.269616
-0.237711
-0.209631
-0.184467
-0.161472
-0.140024
-0.119594
-0.0997188
-0.0799873
-0.0600187
-0.0394513
-0.0179296
0.00490862
0.0294445
0.0560926
0.0853171
0.117652
0.153726
0.194295
0.240284
0.292846
0.353436
0.423918
0.506704
0.604942
0.722762
0.865561
1.0403
1.25567
1.52171
1.84812
2.23974
2.68368
3.10334
3.31481
-4.30831
-3.58027
-2.81238
-2.18397
-1.69678
-1.3309
-1.05971
-0.85746
-0.70452
-0.587075
-0.495441
-0.422794
-0.364294
-0.316453
-0.276714
-0.243168
-0.21436
-0.18916
-0.166673
-0.146177
-0.127074
-0.108862
-0.0911042
-0.0734122
-0.0554299
-0.0368187
-0.0172463
0.00362622
0.0261566
0.0507353
0.0778021
0.107866
0.141533
0.179538
0.222795
0.272461
0.330031
0.397472
0.477421
0.573479
0.690649
0.835986
1.01951
1.25551
1.56429
1.97279
2.50866
3.19007
4.01475
4.8084
-7.04622
-4.67307
-3.13915
-2.23597
-1.63556
-1.22715
-0.948456
-0.752929
-0.61111
-0.505313
-0.424463
-0.361339
-0.311094
-0.27038
-0.236812
-0.208642
-0.184558
-0.163549
-0.14482
-0.127732
-0.111756
-0.0964498
-0.0814282
-0.0663493
-0.0508988
-0.0347788
-0.017696
0.000648472
0.02057
0.0424132
0.0665664
0.0934801
0.123691
0.157853
0.196782
0.241522
0.29343
0.354321
0.426676
0.513983
0.621287
0.75611
0.929991
1.16131
1.4806
1.93677
2.59634
3.57208
5.19438
7.67837
-11.6814
-5.75836
-2.98807
-1.87146
-1.28238
-0.928308
-0.706918
-0.55975
-0.455685
-0.378808
-0.320237
-0.274535
-0.238163
-0.208703
-0.184428
-0.164064
-0.146642
-0.131406
-0.117754
-0.105198
-0.0933287
-0.0817996
-0.0703077
-0.0585813
-0.0463696
-0.0334338
-0.0195388
-0.00444468
0.0121006
0.0303714
0.0506748
0.0733647
0.098859
0.127663
0.160402
0.197866
0.241078
0.29139
0.350643
0.421422
0.507502
0.614662
0.752273
0.936864
1.20039
1.60432
2.26053
3.47178
6.35798
12.4032
)
;

boundaryField
{
    movingWall
    {
        type            zeroGradient;
    }
    fixedWalls
    {
        type            zeroGradient;
    }
    frontAndBack
    {
        type            empty;
    }
}


// ************************************************************************* //
