/*--------------------------------*- C++ -*----------------------------------*\
| =========                 |                                                 |
| \\      /  F ield         | OpenFOAM: The Open Source CFD Toolbox           |
|  \\    /   O peration     | Version:  v2012                                 |
|   \\  /    A nd           | Website:  www.openfoam.com                      |
|    \\/     M anipulation  |                                                 |
\*---------------------------------------------------------------------------*/
FoamFile
{
    version     2.0;
    format      ascii;
    class       surfaceScalarField;
    location    "0.2";
    object      phi;
}
// * * * * * * * * * * * * * * * * * * * * * * * * * * * * * * * * * * * * * //

dimensions      [0 3 -1 0 0 0 0];
oriented        oriented;


internalField   nonuniform List<scalar> 
4900
(
1.18528e-09
-1.17797e-09
2.41955e-09
-1.23426e-09
2.51718e-09
-9.76398e-11
1.03911e-09
1.47805e-09
-2.09545e-09
3.13455e-09
-6.79881e-09
4.70334e-09
-1.29009e-08
6.10208e-09
-2.01942e-08
7.2933e-09
-2.8457e-08
8.26282e-09
-3.74656e-08
9.00858e-09
-4.70009e-08
9.53527e-09
-5.68523e-08
9.85146e-09
-6.68203e-08
9.96802e-09
-7.67175e-08
9.89718e-09
-8.63695e-08
9.65202e-09
-9.56156e-08
9.24608e-09
-1.04309e-07
8.69317e-09
-1.12316e-07
8.00726e-09
-1.19518e-07
7.2024e-09
-1.25811e-07
6.29278e-09
-1.31104e-07
5.29268e-09
-1.3532e-07
4.21659e-09
-1.384e-07
3.07924e-09
-1.40295e-07
1.89568e-09
-1.40977e-07
6.81372e-10
-1.40429e-07
-5.47813e-10
-1.38653e-07
-1.77551e-09
-1.35669e-07
-2.98487e-09
-1.3151e-07
-4.15858e-09
-1.26231e-07
-5.2789e-09
-1.19903e-07
-6.32776e-09
-1.12616e-07
-7.28692e-09
-1.04478e-07
-8.13809e-09
-9.56151e-08
-8.86317e-09
-8.61706e-08
-9.44449e-09
-7.63055e-08
-9.86508e-09
-6.61965e-08
-1.0109e-08
-5.60348e-08
-1.01617e-08
-4.60243e-08
-1.00105e-08
-3.63795e-08
-9.6448e-09
-2.73224e-08
-9.05703e-09
-1.90791e-08
-8.24338e-09
-1.18738e-08
-7.20532e-09
-5.92156e-09
-5.9522e-09
-1.41521e-09
-4.50639e-09
1.49863e-09
-2.91393e-09
2.76348e-09
-1.26491e-09
2.49555e-09
2.68062e-10
1.1739e-09
1.32201e-09
1.17424e-09
1.25254e-09
-2.43052e-09
1.4505e-09
-1.43225e-09
-1.15782e-09
2.51067e-09
-7.37804e-09
7.69826e-09
-1.746e-08
1.32165e-08
-3.12956e-08
1.85389e-08
-4.85596e-08
2.33662e-08
-6.88028e-08
2.75365e-08
-9.15096e-08
3.09697e-08
-1.16135e-07
3.36339e-08
-1.42127e-07
3.55276e-08
-1.68944e-07
3.66681e-08
-1.96061e-07
3.70851e-08
-2.2298e-07
3.68165e-08
-2.49233e-07
3.59053e-08
-2.74385e-07
3.4398e-08
-2.98036e-07
3.23436e-08
-3.19821e-07
2.97925e-08
-3.39415e-07
2.67965e-08
-3.5653e-07
2.34082e-08
-3.70919e-07
1.96812e-08
-3.82372e-07
1.567e-08
-3.90723e-07
1.14305e-08
-3.95847e-07
7.01949e-09
-3.97661e-07
2.49555e-09
-3.96128e-07
-2.08136e-09
-3.91254e-07
-6.64958e-09
-3.83093e-07
-1.11459e-08
-3.71746e-07
-1.55055e-08
-3.57362e-07
-1.96625e-08
-3.4014e-07
-2.35499e-08
-3.20327e-07
-2.71006e-08
-2.98217e-07
-3.02477e-08
-2.74155e-07
-3.29254e-08
-2.48529e-07
-3.50702e-08
-2.21772e-07
-3.66219e-08
-1.94357e-07
-3.75246e-08
-1.6679e-07
-3.77287e-08
-1.39608e-07
-3.71927e-08
-1.13368e-07
-3.58849e-08
-8.86379e-08
-3.37868e-08
-6.59842e-08
-3.08971e-08
-4.59518e-08
-2.72378e-08
-2.90397e-08
-2.28642e-08
-1.56633e-08
-1.78827e-08
-6.09671e-09
-1.24805e-08
-3.83048e-10
-6.97877e-09
1.8032e-09
-1.91871e-09
1.33328e-09
1.79133e-09
2.5078e-09
1.55776e-10
-2.58631e-09
-2.40141e-09
1.12489e-09
-9.34422e-09
9.45344e-09
-2.15088e-08
1.98629e-08
-3.91608e-08
3.08685e-08
-6.21538e-08
4.15319e-08
-9.00585e-08
5.12709e-08
-1.22264e-07
5.97417e-08
-1.58048e-07
6.67538e-08
-1.9663e-07
7.2216e-08
-2.37205e-07
7.6103e-08
-2.7897e-07
7.84333e-08
-3.21141e-07
7.92556e-08
-3.62963e-07
7.86391e-08
-4.03725e-07
7.66671e-08
-4.4276e-07
7.34326e-08
-4.79452e-07
6.90357e-08
-5.1324e-07
6.35812e-08
-5.43622e-07
5.71779e-08
-5.70151e-07
4.99373e-08
-5.92444e-07
4.19738e-08
-6.10178e-07
3.34043e-08
-6.23096e-07
2.43483e-08
-6.31005e-07
1.49285e-08
-6.3378e-07
5.27029e-09
-6.31364e-07
-4.49737e-09
-6.23771e-07
-1.42424e-08
-6.11087e-07
-2.38296e-08
-5.93472e-07
-3.31207e-08
-5.71159e-07
-4.19757e-08
-5.44456e-07
-5.02527e-08
-5.13746e-07
-5.78101e-08
-4.79487e-07
-6.45073e-08
-4.42205e-07
-7.0207e-08
-4.02498e-07
-7.47772e-08
-3.61026e-07
-7.80938e-08
-3.18507e-07
-8.00438e-08
-2.75707e-07
-8.05284e-08
-2.33433e-07
-7.94672e-08
-1.92514e-07
-7.68036e-08
-1.5379e-07
-7.25113e-08
-1.18084e-07
-6.66031e-08
-8.61775e-08
-5.91443e-08
-5.87701e-08
-5.02717e-08
-3.64278e-08
-4.0225e-08
-1.95121e-08
-2.9396e-08
-8.08353e-09
-1.8407e-08
-1.78087e-09
-8.2213e-09
3.29258e-10
-3.19173e-10
2.83714e-09
-1.37602e-09
-1.21031e-09
-7.51871e-09
7.26755e-09
-1.96954e-08
2.16301e-08
-3.85465e-08
3.8714e-08
-6.4217e-08
5.6539e-08
-9.64586e-08
7.37736e-08
-1.34729e-07
8.95416e-08
-1.7828e-07
1.03293e-07
-2.26228e-07
1.14701e-07
-2.77607e-07
1.23595e-07
-3.31414e-07
1.2991e-07
-3.86639e-07
1.33658e-07
-4.42285e-07
1.34902e-07
-4.97391e-07
1.33745e-07
-5.51042e-07
1.30318e-07
-6.02378e-07
1.24769e-07
-6.50603e-07
1.17261e-07
-6.9499e-07
1.07968e-07
-7.34883e-07
9.70706e-08
-7.69702e-07
8.4757e-08
-7.98949e-07
7.12202e-08
-8.22203e-07
5.66584e-08
-8.39129e-07
4.12747e-08
-8.49478e-07
2.52774e-08
-8.53088e-07
8.88027e-09
-8.49888e-07
-7.69789e-09
-8.39897e-07
-2.42328e-08
-8.23231e-07
-4.04953e-08
-8.001e-07
-5.6252e-08
-7.7081e-07
-7.12661e-08
-7.35763e-07
-8.52996e-08
-6.95459e-07
-9.81145e-08
-6.5049e-07
-1.09476e-07
-6.01541e-07
-1.19156e-07
-5.49382e-07
-1.26936e-07
-4.94863e-07
-1.32612e-07
-4.38907e-07
-1.36001e-07
-3.82492e-07
-1.36943e-07
-3.26643e-07
-1.35315e-07
-2.72413e-07
-1.31034e-07
-2.20853e-07
-1.24071e-07
-1.72993e-07
-1.14463e-07
-1.29799e-07
-1.02338e-07
-9.2132e-08
-8.79391e-08
-6.06884e-08
-7.16688e-08
-3.59328e-08
-5.41517e-08
-1.80126e-08
-3.63271e-08
-6.66584e-09
-1.95679e-08
-1.12775e-09
-5.85737e-09
1.70935e-09
-3.01791e-09
1.80759e-09
-1.3101e-08
1.73505e-08
-3.09605e-08
3.94896e-08
-5.69052e-08
6.46586e-08
-9.08584e-08
9.04923e-08
-1.32407e-07
1.15323e-07
-1.80868e-07
1.38002e-07
-2.35353e-07
1.57777e-07
-2.94831e-07
1.74179e-07
-3.58181e-07
1.86946e-07
-4.24236e-07
1.95965e-07
-4.91813e-07
2.01235e-07
-5.59745e-07
2.02833e-07
-6.26896e-07
2.00897e-07
-6.92185e-07
1.95607e-07
-7.54591e-07
1.87175e-07
-8.13166e-07
1.75836e-07
-8.67041e-07
1.61843e-07
-9.15435e-07
1.45464e-07
-9.57655e-07
1.26977e-07
-9.93102e-07
1.06667e-07
-1.02127e-06
8.48311e-08
-1.04177e-06
6.17723e-08
-1.0543e-06
3.78019e-08
-1.05866e-06
1.32393e-08
-1.05477e-06
-1.15884e-08
-1.04265e-06
-3.63466e-08
-1.02245e-06
-6.06935e-08
-9.94423e-07
-8.42819e-08
-9.58929e-07
-1.0676e-07
-9.16453e-07
-1.27775e-07
-8.67592e-07
-1.46976e-07
-8.13054e-07
-1.64015e-07
-7.53652e-07
-1.78558e-07
-6.90304e-07
-1.90285e-07
-6.24017e-07
-1.98899e-07
-5.55881e-07
-2.04136e-07
-4.87055e-07
-2.0577e-07
-4.18742e-07
-2.03628e-07
-3.52177e-07
-1.976e-07
-2.88591e-07
-1.87657e-07
-2.29185e-07
-1.7387e-07
-1.75083e-07
-1.56439e-07
-1.27295e-07
-1.35727e-07
-8.66545e-08
-1.1231e-07
-5.37602e-08
-8.70461e-08
-2.89118e-08
-6.11755e-08
-1.20486e-08
-3.64309e-08
-2.70622e-09
-1.51997e-08
-9.96913e-10
-4.63673e-09
6.44433e-09
-1.87374e-08
3.14511e-08
-4.24344e-08
6.31865e-08
-7.56374e-08
9.78616e-08
-1.17983e-07
1.32838e-07
-1.68842e-07
1.66182e-07
-2.27357e-07
1.96517e-07
-2.92484e-07
2.22905e-07
-3.63047e-07
2.44743e-07
-4.37781e-07
2.6168e-07
-5.15371e-07
2.73555e-07
-5.94489e-07
2.80352e-07
-6.73819e-07
2.82163e-07
-7.52084e-07
2.79161e-07
-8.28058e-07
2.71581e-07
-9.00588e-07
2.59704e-07
-9.68597e-07
2.43845e-07
-1.0311e-06
2.24347e-07
-1.08721e-06
2.01573e-07
-1.13614e-06
1.75903e-07
-1.1772e-06
1.47729e-07
-1.20982e-06
1.17458e-07
-1.23356e-06
8.55078e-08
-1.24807e-06
5.23071e-08
-1.25312e-06
1.82957e-08
-1.24863e-06
-1.60762e-08
-1.23463e-06
-5.03479e-08
-1.21128e-06
-8.40501e-08
-1.17885e-06
-1.16706e-07
-1.13778e-06
-1.47833e-07
-1.08861e-06
-1.76949e-07
-1.03201e-06
-2.03572e-07
-9.68791e-07
-2.27232e-07
-8.99877e-07
-2.47472e-07
-8.26304e-07
-2.63858e-07
-7.49211e-07
-2.75991e-07
-6.69832e-07
-2.83515e-07
-5.89473e-07
-2.8613e-07
-5.09492e-07
-2.83609e-07
-4.31279e-07
-2.75813e-07
-3.56222e-07
-2.62713e-07
-2.85674e-07
-2.44417e-07
-2.20915e-07
-2.21199e-07
-1.631e-07
-1.93542e-07
-1.13219e-07
-1.62191e-07
-7.20409e-08
-1.28224e-07
-4.00694e-08
-9.3147e-08
-1.7511e-08
-5.89893e-08
-4.26979e-09
-2.84408e-08
-5.26673e-09
-6.18089e-09
1.26252e-08
-2.42337e-08
4.95039e-08
-5.37479e-08
9.27006e-08
-9.4215e-08
1.38329e-07
-1.44949e-07
1.83572e-07
-2.05069e-07
2.26302e-07
-2.73513e-07
2.64961e-07
-3.49066e-07
2.98457e-07
-4.30395e-07
3.26073e-07
-5.16093e-07
3.47377e-07
-6.04706e-07
3.62169e-07
-6.94774e-07
3.7042e-07
-7.84852e-07
3.72241e-07
-8.73535e-07
3.67845e-07
-9.59481e-07
3.57527e-07
-1.04142e-06
3.41642e-07
-1.11817e-06
3.20594e-07
-1.18864e-06
2.94823e-07
-1.25187e-06
2.64796e-07
-1.30697e-06
2.31004e-07
-1.3532e-06
1.9396e-07
-1.38993e-06
1.54189e-07
-1.41666e-06
1.12236e-07
-1.43301e-06
6.86579e-08
-1.43874e-06
2.4028e-08
-1.43375e-06
-2.1068e-08
-1.41807e-06
-6.60313e-08
-1.39186e-06
-1.10252e-07
-1.35546e-06
-1.5311e-07
-1.30931e-06
-1.93981e-07
-1.25402e-06
-2.32238e-07
-1.19033e-06
-2.6726e-07
-1.11913e-06
-2.98437e-07
-1.04142e-06
-3.2518e-07
-9.5835e-07
-3.4693e-07
-8.71167e-07
-3.63174e-07
-7.81226e-07
-3.73456e-07
-6.89962e-07
-3.77394e-07
-5.98869e-07
-3.74701e-07
-5.09478e-07
-3.65204e-07
-4.2332e-07
-3.48871e-07
-3.41898e-07
-3.25839e-07
-2.66642e-07
-2.96455e-07
-1.98872e-07
-2.61312e-07
-1.39752e-07
-2.21311e-07
-9.02507e-08
-1.77725e-07
-5.11157e-08
-1.32282e-07
-2.28561e-08
-8.72489e-08
-5.76477e-09
-4.55321e-08
-1.10315e-08
-7.63843e-09
2.02636e-08
-2.95176e-08
7.1383e-08
-6.4739e-08
1.27922e-07
-1.12385e-07
1.85974e-07
-1.71432e-07
2.42619e-07
-2.40727e-07
2.95597e-07
-3.1898e-07
3.43214e-07
-4.04786e-07
3.84263e-07
-4.96647e-07
4.17934e-07
-5.93006e-07
4.43736e-07
-6.92275e-07
4.61438e-07
-7.92866e-07
4.71011e-07
-8.93216e-07
4.72591e-07
-9.91809e-07
4.66438e-07
-1.0872e-06
4.52914e-07
-1.17801e-06
4.32455e-07
-1.26298e-06
4.05561e-07
-1.34093e-06
3.72775e-07
-1.41081e-06
3.34679e-07
-1.47169e-06
2.91884e-07
-1.52276e-06
2.45028e-07
-1.56334e-06
1.94768e-07
-1.59289e-06
1.41783e-07
-1.611e-06
8.67689e-08
-1.61741e-06
3.04414e-08
-1.61201e-06
-2.64683e-08
-1.59483e-06
-8.32128e-08
-1.56605e-06
-1.39031e-07
-1.52601e-06
-1.93151e-07
-1.47519e-06
-2.44794e-07
-1.41425e-06
-2.93179e-07
-1.34398e-06
-3.37532e-07
-1.26532e-06
-3.77095e-07
-1.17937e-06
-4.11134e-07
-1.08734e-06
-4.38956e-07
-9.90595e-07
-4.59924e-07
-8.9058e-07
-4.7347e-07
-7.88851e-07
-4.79124e-07
-6.87025e-07
-4.76527e-07
-5.86764e-07
-4.65465e-07
-4.89743e-07
-4.45893e-07
-3.97611e-07
-4.17971e-07
-3.11962e-07
-3.82104e-07
-2.34289e-07
-3.38985e-07
-1.65954e-07
-2.89646e-07
-1.08152e-07
-2.35527e-07
-6.18957e-08
-1.78538e-07
-2.80132e-08
-1.21131e-07
-7.17876e-09
-6.63665e-08
-1.82103e-08
-9.01524e-09
2.92789e-08
-3.45806e-08
9.69483e-08
-7.53649e-08
1.68706e-07
-1.30061e-07
2.4067e-07
-1.97312e-07
3.0987e-07
-2.75676e-07
3.73961e-07
-3.63623e-07
4.31161e-07
-4.59541e-07
4.80182e-07
-5.61757e-07
5.2015e-07
-6.68558e-07
5.50536e-07
-7.78217e-07
5.71097e-07
-8.89024e-07
5.81818e-07
-9.99302e-07
5.82868e-07
-1.10743e-06
5.74568e-07
-1.21187e-06
5.57352e-07
-1.31116e-06
5.31748e-07
-1.40396e-06
4.98357e-07
-1.48902e-06
4.57836e-07
-1.56523e-06
4.10887e-07
-1.63159e-06
3.58249e-07
-1.68726e-06
3.00693e-07
-1.7315e-06
2.39015e-07
-1.76376e-06
1.74035e-07
-1.78358e-06
1.06596e-07
-1.79071e-06
3.75642e-08
-1.785e-06
-3.2177e-08
-1.76649e-06
-1.01724e-07
-1.73536e-06
-1.70155e-07
-1.69198e-06
-2.36539e-07
-1.63684e-06
-2.99932e-07
-1.57062e-06
-3.59393e-07
-1.49417e-06
-4.13984e-07
-1.40848e-06
-4.62787e-07
-1.3147e-06
-5.04916e-07
-1.21412e-06
-5.39531e-07
-1.10819e-06
-5.65859e-07
-9.98442e-07
-5.83214e-07
-8.86546e-07
-5.9102e-07
-7.74235e-07
-5.88839e-07
-6.63297e-07
-5.76402e-07
-5.5555e-07
-5.5364e-07
-4.528e-07
-5.20722e-07
-3.56809e-07
-4.78094e-07
-2.69266e-07
-4.26529e-07
-1.91744e-07
-3.67168e-07
-1.25685e-07
-3.01586e-07
-7.23807e-08
-2.31843e-07
-3.29797e-08
-1.60532e-07
-8.51894e-09
-9.08272e-08
-2.67292e-08
-1.03243e-08
3.96031e-08
-3.94454e-08
1.26069e-07
-8.56477e-08
2.14908e-07
-1.47259e-07
3.02282e-07
-2.22592e-07
3.85203e-07
-3.09917e-07
4.61286e-07
-4.07452e-07
5.28696e-07
-5.13368e-07
5.86098e-07
-6.25804e-07
6.32586e-07
-7.42885e-07
6.67617e-07
-8.62744e-07
6.90956e-07
-9.83544e-07
7.02618e-07
-1.1035e-06
7.02824e-07
-1.22089e-06
6.91962e-07
-1.3341e-06
6.70554e-07
-1.44158e-06
6.39228e-07
-1.54191e-06
5.98695e-07
-1.63381e-06
5.49733e-07
-1.7161e-06
4.93172e-07
-1.78773e-06
4.29885e-07
-1.84782e-06
3.60784e-07
-1.89562e-06
2.86807e-07
-1.9305e-06
2.08924e-07
-1.95204e-06
1.2813e-07
-1.95992e-06
4.5445e-08
-1.95401e-06
-3.80878e-08
-1.93433e-06
-1.21402e-07
-1.90107e-06
-2.03413e-07
-1.85459e-06
-2.83018e-07
-1.79542e-06
-3.59107e-07
-1.72425e-06
-4.30565e-07
-1.64194e-06
-4.96285e-07
-1.54955e-06
-5.5518e-07
-1.44827e-06
-6.062e-07
-1.33945e-06
-6.48349e-07
-1.2246e-06
-6.80704e-07
-1.10537e-06
-7.02446e-07
-9.83508e-07
-7.12884e-07
-8.60861e-07
-7.11485e-07
-7.39353e-07
-6.9791e-07
-6.20944e-07
-6.72049e-07
-5.07606e-07
-6.3406e-07
-4.01285e-07
-5.84415e-07
-3.03874e-07
-5.2394e-07
-2.17178e-07
-4.53863e-07
-1.42898e-07
-3.75866e-07
-8.26128e-08
-2.92128e-07
-3.77879e-08
-2.05357e-07
-9.80076e-09
-1.18814e-07
-3.653e-08
-1.15807e-08
5.11837e-08
-4.41496e-08
1.58638e-07
-9.56432e-08
2.66402e-07
-1.64047e-07
3.70685e-07
-2.47352e-07
4.68509e-07
-3.4354e-07
5.57473e-07
-4.50572e-07
6.35727e-07
-5.66393e-07
7.01919e-07
-6.88946e-07
7.55139e-07
-8.16188e-07
7.94859e-07
-9.46104e-07
8.20873e-07
-1.07673e-06
8.33247e-07
-1.20618e-06
8.32271e-07
-1.33264e-06
8.18417e-07
-1.45439e-06
7.92305e-07
-1.56983e-06
7.54675e-07
-1.6775e-06
7.06358e-07
-1.77602e-06
6.4826e-07
-1.8642e-06
5.81348e-07
-1.94095e-06
5.06636e-07
-2.00535e-06
4.25179e-07
-2.05661e-06
3.38066e-07
-2.0941e-06
2.46418e-07
-2.11736e-06
1.51386e-07
-2.12606e-06
5.41494e-08
-2.12006e-06
-4.40864e-08
-2.09937e-06
-1.42089e-07
-2.06418e-06
-2.38603e-07
-2.01485e-06
-3.32356e-07
-1.9519e-06
-4.22058e-07
-1.87604e-06
-5.06419e-07
-1.78817e-06
-5.84153e-07
-1.68936e-06
-6.53997e-07
-1.58083e-06
-7.14723e-07
-1.46402e-06
-7.65168e-07
-1.34047e-06
-8.04248e-07
-1.21192e-06
-8.30997e-07
-1.08021e-06
-8.4459e-07
-9.47317e-07
-8.44382e-07
-8.15281e-07
-8.29946e-07
-6.86219e-07
-8.01111e-07
-5.62275e-07
-7.58004e-07
-4.45592e-07
-7.01098e-07
-3.38282e-07
-6.3125e-07
-2.42395e-07
-5.4975e-07
-1.59902e-07
-4.5836e-07
-9.26731e-08
-3.59356e-07
-4.24872e-08
-2.55543e-07
-1.10427e-08
-1.50259e-07
-4.75727e-08
-1.27995e-08
6.39833e-08
-4.87353e-08
1.94574e-07
-1.05422e-07
3.23089e-07
-1.8052e-07
4.45783e-07
-2.7171e-07
5.59698e-07
-3.76682e-07
6.62446e-07
-4.93137e-07
7.52182e-07
-6.1879e-07
8.27572e-07
-7.51381e-07
8.8773e-07
-8.88692e-07
9.32169e-07
-1.02856e-06
9.60739e-07
-1.16889e-06
9.73578e-07
-1.30768e-06
9.71064e-07
-1.44304e-06
9.53771e-07
-1.57316e-06
9.22433e-07
-1.6964e-06
8.77912e-07
-1.81122e-06
8.21171e-07
-1.91621e-06
7.53255e-07
-2.01013e-06
6.75272e-07
-2.09188e-06
5.88383e-07
-2.16049e-06
4.93793e-07
-2.21517e-06
3.92743e-07
-2.25526e-06
2.86509e-07
-2.28028e-06
1.76401e-07
-2.28988e-06
6.3758e-08
-2.28392e-06
-5.00492e-08
-2.26239e-06
-1.6362e-07
-2.22546e-06
-2.75529e-07
-2.1735e-06
-3.84324e-07
-2.10702e-06
-4.88539e-07
-2.02674e-06
-5.86698e-07
-1.93356e-06
-6.7733e-07
-1.82857e-06
-7.58986e-07
-1.71304e-06
-8.30253e-07
-1.58842e-06
-8.89785e-07
-1.45635e-06
-9.36324e-07
-1.31861e-06
-9.68739e-07
-1.17714e-06
-9.86053e-07
-1.03404e-06
-9.8749e-07
-8.91472e-07
-9.72511e-07
-7.51722e-07
-9.40861e-07
-6.17113e-07
-8.92614e-07
-4.89996e-07
-8.28215e-07
-3.72715e-07
-7.4853e-07
-2.67581e-07
-6.54884e-07
-1.76839e-07
-5.49101e-07
-1.02662e-07
-4.33534e-07
-4.7134e-08
-3.11071e-07
-1.2264e-08
-1.85129e-07
-5.98367e-08
-1.39951e-08
7.79783e-08
-5.32452e-08
2.33824e-07
-1.15061e-07
3.84904e-07
-1.96787e-07
5.2751e-07
-2.95799e-07
6.5871e-07
-4.09501e-07
7.76147e-07
-5.35327e-07
8.78009e-07
-6.70758e-07
9.63003e-07
-8.13326e-07
1.0303e-06
-9.6063e-07
1.07947e-06
-1.11035e-06
1.11046e-06
-1.26028e-06
1.1235e-06
-1.40829e-06
1.11908e-06
-1.55241e-06
1.09788e-06
-1.69076e-06
1.06079e-06
-1.82163e-06
1.00878e-06
-1.94344e-06
9.42982e-07
-2.05476e-06
8.64574e-07
-2.15431e-06
7.74817e-07
-2.24095e-06
6.75024e-07
-2.31371e-06
5.66554e-07
-2.37177e-06
4.50803e-07
-2.41446e-06
3.29204e-07
-2.44129e-06
2.03223e-07
-2.45189e-06
7.43631e-08
-2.4461e-06
-5.58424e-08
-2.42389e-06
-1.85825e-07
-2.38544e-06
-3.13984e-07
-2.33107e-06
-4.38692e-07
-2.26131e-06
-5.58299e-07
-2.17687e-06
-6.71143e-07
-2.07864e-06
-7.75559e-07
-1.96772e-06
-8.69903e-07
-1.84541e-06
-9.52567e-07
-1.71318e-06
-1.02201e-06
-1.57273e-06
-1.07678e-06
-1.42591e-06
-1.11556e-06
-1.27475e-06
-1.13721e-06
-1.12145e-06
-1.14079e-06
-9.68326e-07
-1.12563e-06
-8.17822e-07
-1.09137e-06
-6.72454e-07
-1.03798e-06
-5.34794e-07
-9.65876e-07
-4.0743e-07
-8.75893e-07
-2.92943e-07
-7.69372e-07
-1.9387e-07
-6.48175e-07
-1.12686e-07
-5.14718e-07
-5.17868e-08
-3.7197e-07
-1.34831e-08
-2.23433e-07
-7.33198e-08
-1.51801e-08
9.31584e-08
-5.77198e-08
2.76364e-07
-1.24632e-07
4.51817e-07
-2.12955e-07
6.15833e-07
-3.1976e-07
7.65515e-07
-4.42161e-07
8.98548e-07
-5.77328e-07
1.01318e-06
-7.22497e-07
1.10817e-06
-8.7499e-07
1.18279e-06
-1.03222e-06
1.2367e-06
-1.19172e-06
1.26996e-06
-1.35113e-06
1.28291e-06
-1.50824e-06
1.27619e-06
-1.66097e-06
1.25062e-06
-1.8074e-06
1.20721e-06
-1.94575e-06
1.14713e-06
-2.0744e-06
1.07164e-06
-2.1919e-06
9.82073e-07
-2.29694e-06
8.79857e-07
-2.38838e-06
7.6646e-07
-2.46522e-06
6.43396e-07
-2.52663e-06
5.12217e-07
-2.57194e-06
3.74514e-07
-2.60063e-06
2.3191e-07
-2.61233e-06
8.60654e-08
-2.60685e-06
-6.13218e-08
-2.58416e-06
-2.08517e-07
-2.54439e-06
-3.5375e-07
-2.48787e-06
-4.95214e-07
-2.4151e-06
-6.31075e-07
-2.32676e-06
-7.59479e-07
-2.22375e-06
-8.78566e-07
-2.10717e-06
-9.86487e-07
-1.97831e-06
-1.08143e-06
-1.83868e-06
-1.16163e-06
-1.69002e-06
-1.22545e-06
-1.53423e-06
-1.27135e-06
-1.37344e-06
-1.298e-06
-1.20995e-06
-1.30428e-06
-1.04623e-06
-1.28935e-06
-8.84889e-07
-1.25271e-06
-7.28642e-07
-1.19423e-06
-5.80294e-07
-1.11422e-06
-4.42693e-07
-1.01349e-06
-3.187e-07
-8.93364e-07
-2.11158e-07
-7.55717e-07
-1.22855e-07
-6.03021e-07
-5.65031e-08
-4.38321e-07
-1.47178e-08
-2.65218e-07
-8.80376e-08
-1.63661e-08
1.09524e-07
-6.21963e-08
3.22194e-07
-1.34207e-07
5.23828e-07
-2.29129e-07
7.10754e-07
-3.43726e-07
8.80113e-07
-4.74823e-07
1.02964e-06
-6.19315e-07
1.15767e-06
-7.74195e-07
1.26305e-06
-9.36565e-07
1.34516e-06
-1.10365e-06
1.40379e-06
-1.27283e-06
1.43913e-06
-1.4416e-06
1.45169e-06
-1.60767e-06
1.44225e-06
-1.76886e-06
1.41181e-06
-1.92319e-06
1.36154e-06
-2.06884e-06
1.29278e-06
-2.20416e-06
1.20696e-06
-2.32768e-06
1.10559e-06
-2.43807e-06
9.90249e-07
-2.53418e-06
8.62574e-07
-2.61502e-06
7.24237e-07
-2.67975e-06
5.76946e-07
-2.72768e-06
4.22446e-07
-2.75829e-06
2.62516e-07
-2.77119e-06
9.89711e-08
-2.76618e-06
-6.63326e-08
-2.7432e-06
-2.31498e-07
-2.70237e-06
-3.94587e-07
-2.64396e-06
-5.53616e-07
-2.56847e-06
-7.06569e-07
-2.47655e-06
-8.51399e-07
-2.36907e-06
-9.86043e-07
-2.24712e-06
-1.10844e-06
-2.11199e-06
-1.21656e-06
-1.9652e-06
-1.30842e-06
-1.80851e-06
-1.38214e-06
-1.64389e-06
-1.43597e-06
-1.47355e-06
-1.46834e-06
-1.2999e-06
-1.47793e-06
-1.12555e-06
-1.4637e-06
-9.53274e-07
-1.42498e-06
-7.8601e-07
-1.36149e-06
-6.268e-07
-1.27343e-06
-4.78765e-07
-1.16153e-06
-3.45068e-07
-1.02706e-06
-2.28865e-07
-8.7192e-07
-1.33275e-07
-6.98611e-07
-6.13381e-08
-5.10258e-07
-1.59847e-08
-3.10571e-07
-1.04022e-07
-1.75632e-08
1.27088e-07
-6.67088e-08
3.71339e-07
-1.43851e-07
6.00969e-07
-2.45404e-07
8.12307e-07
-3.67823e-07
1.00253e-06
-5.07633e-07
1.16945e-06
-6.61452e-07
1.31149e-06
-8.26019e-07
1.42762e-06
-9.98215e-07
1.51736e-06
-1.17508e-06
1.58065e-06
-1.35381e-06
1.61787e-06
-1.53181e-06
1.62969e-06
-1.70665e-06
1.61709e-06
-1.8761e-06
1.58126e-06
-2.03812e-06
1.52356e-06
-2.19085e-06
1.44551e-06
-2.33262e-06
1.34874e-06
-2.46195e-06
1.23492e-06
-2.57751e-06
1.10581e-06
-2.67816e-06
9.63217e-07
-2.76289e-06
8.08968e-07
-2.83087e-06
6.44928e-07
-2.88142e-06
4.72993e-07
-2.91399e-06
2.95091e-07
-2.92821e-06
1.13187e-07
-2.92383e-06
-7.07104e-08
-2.90078e-06
-2.54549e-07
-2.85914e-06
-4.36227e-07
-2.79916e-06
-6.13593e-07
-2.72128e-06
-7.84446e-07
-2.62614e-06
-9.46547e-07
-2.51455e-06
-1.09763e-06
-2.38758e-06
-1.23541e-06
-2.2465e-06
-1.35763e-06
-2.09285e-06
-1.46207e-06
-1.92838e-06
-1.5466e-06
-1.75513e-06
-1.60922e-06
-1.57536e-06
-1.64811e-06
-1.3916e-06
-1.66169e-06
-1.20659e-06
-1.64871e-06
-1.0233e-06
-1.60827e-06
-8.44867e-07
-1.53992e-06
-6.74599e-07
-1.4437e-06
-5.15903e-07
-1.32023e-06
-3.72254e-07
-1.17071e-06
-2.47147e-07
-9.97026e-07
-1.44049e-07
-8.01709e-07
-6.63447e-08
-5.87962e-07
-1.72993e-08
-3.59616e-07
-1.21322e-07
-1.87806e-08
1.45868e-07
-7.12884e-08
4.23847e-07
-1.53621e-07
6.83302e-07
-2.6187e-07
9.20556e-07
-3.92167e-07
1.13283e-06
-5.40727e-07
1.31801e-06
-7.03882e-07
1.47464e-06
-8.78113e-07
1.60185e-06
-1.06007e-06
1.69931e-06
-1.2466e-06
1.76718e-06
-1.43475e-06
1.80602e-06
-1.62178e-06
1.81672e-06
-1.80517e-06
1.80048e-06
-1.98262e-06
1.75871e-06
-2.15206e-06
1.69299e-06
-2.31158e-06
1.60504e-06
-2.45953e-06
1.49668e-06
-2.59441e-06
1.36979e-06
-2.7149e-06
1.2263e-06
-2.81987e-06
1.06819e-06
-2.90834e-06
8.97437e-07
-2.97948e-06
7.16067e-07
-3.03261e-06
5.26121e-07
-3.06719e-06
3.29668e-07
-3.08282e-06
1.28817e-07
-3.07924e-06
-7.42828e-08
-3.05636e-06
-2.77432e-07
-3.01421e-06
-4.78375e-07
-2.95301e-06
-6.74794e-07
-2.87314e-06
-8.64315e-07
-2.77518e-06
-1.04451e-06
-2.65992e-06
-1.21289e-06
-2.52836e-06
-1.36697e-06
-2.38175e-06
-1.50424e-06
-2.2216e-06
-1.62222e-06
-2.04968e-06
-1.71852e-06
-1.86805e-06
-1.79085e-06
-1.67904e-06
-1.83712e-06
-1.48526e-06
-1.85547e-06
-1.28961e-06
-1.84436e-06
-1.09523e-06
-1.80265e-06
-9.05492e-07
-1.72966e-06
-7.23959e-07
-1.62524e-06
-5.54343e-07
-1.48984e-06
-4.00457e-07
-1.3246e-06
-2.66154e-07
-1.13133e-06
-1.55273e-07
-9.12591e-07
-7.1573e-08
-6.71662e-07
-1.86763e-08
-4.12513e-07
-1.39998e-07
-2.00269e-08
1.65895e-07
-7.59637e-08
4.79784e-07
-1.63575e-07
7.70914e-07
-2.7861e-07
1.03559e-06
-4.16862e-07
1.27108e-06
-5.74224e-07
1.47538e-06
-7.46729e-07
1.64715e-06
-9.30589e-07
1.78571e-06
-1.12222e-06
1.89094e-06
-1.31827e-06
1.96323e-06
-1.51563e-06
2.00338e-06
-1.71144e-06
2.01253e-06
-1.90309e-06
1.99213e-06
-2.08822e-06
1.94384e-06
-2.26471e-06
1.86948e-06
-2.43067e-06
1.771e-06
-2.58443e-06
1.65044e-06
-2.72451e-06
1.50987e-06
-2.84962e-06
1.35142e-06
-2.95865e-06
1.17722e-06
-3.05065e-06
9.89433e-07
-3.1248e-06
7.90219e-07
-3.18044e-06
5.8176e-07
-3.21703e-06
3.6626e-07
-3.23417e-06
1.45956e-07
-3.23158e-06
-7.6872e-08
-3.20913e-06
-2.99889e-07
-3.16681e-06
-5.20695e-07
-3.10478e-06
-7.36821e-07
-3.02337e-06
-9.45722e-07
-2.9231e-06
-1.14478e-06
-2.80467e-06
-1.33132e-06
-2.66905e-06
-1.5026e-06
-2.51741e-06
-1.65587e-06
-2.35124e-06
-1.7884e-06
-2.17229e-06
-1.89747e-06
-1.98262e-06
-1.98052e-06
-1.78463e-06
-2.03511e-06
-1.58101e-06
-2.05909e-06
-1.3748e-06
-2.05058e-06
-1.1693e-06
-2.00815e-06
-9.68126e-07
-1.93083e-06
-7.75117e-07
-1.81825e-06
-5.94305e-07
-1.67065e-06
-4.29862e-07
-1.48904e-06
-2.86028e-07
-1.27516e-06
-1.67043e-07
-1.03158e-06
-7.70711e-08
-7.61634e-07
-2.01299e-08
-4.69454e-07
-1.60128e-07
-2.13098e-08
1.87205e-07
-8.07618e-08
5.39236e-07
-1.73764e-07
8.63916e-07
-2.957e-07
1.15753e-06
-4.42005e-07
1.41739e-06
-6.08231e-07
1.6416e-06
-7.90098e-07
1.82901e-06
-9.83535e-07
1.97915e-06
-1.18472e-06
2.09213e-06
-1.3901e-06
2.16861e-06
-1.59641e-06
2.20969e-06
-1.80067e-06
2.21679e-06
-2.00019e-06
2.19165e-06
-2.19257e-06
2.13622e-06
-2.37566e-06
2.05258e-06
-2.54758e-06
1.94293e-06
-2.70668e-06
1.80954e-06
-2.85152e-06
1.6547e-06
-2.98084e-06
1.48074e-06
-3.09358e-06
1.28996e-06
-3.18881e-06
1.08467e-06
-3.26577e-06
8.67176e-07
-3.3238e-06
6.39793e-07
-3.36239e-06
4.04844e-07
-3.38111e-06
1.64681e-07
-3.37969e-06
-7.82978e-08
-3.35794e-06
-3.21639e-07
-3.31582e-06
-5.62815e-07
-3.25342e-06
-7.99216e-07
-3.171e-06
-1.02814e-06
-3.06899e-06
-1.24679e-06
-2.94803e-06
-1.45228e-06
-2.80897e-06
-1.64166e-06
-2.65294e-06
-1.81191e-06
-2.48134e-06
-1.95999e-06
-2.2959e-06
-2.08291e-06
-2.09868e-06
-2.17774e-06
-1.89208e-06
-2.24171e-06
-1.67889e-06
-2.27228e-06
-1.46225e-06
-2.26722e-06
-1.24566e-06
-2.22474e-06
-1.03296e-06
-2.14353e-06
-8.28281e-07
-2.02293e-06
-6.35989e-07
-1.86294e-06
-4.60643e-07
-1.66439e-06
-3.06903e-07
-1.4289e-06
-1.79446e-07
-1.15903e-06
-8.28855e-08
-8.58195e-07
-2.16737e-08
-5.30666e-07
-1.81802e-07
-2.26375e-08
2.09842e-07
-8.57099e-08
6.02308e-07
-1.84239e-07
9.62445e-07
-3.13215e-07
1.2865e-06
-4.67688e-07
1.57186e-06
-6.42846e-07
1.81676e-06
-8.34073e-07
2.02024e-06
-1.03701e-06
2.18208e-06
-1.24758e-06
2.3027e-06
-1.46203e-06
2.38306e-06
-1.67694e-06
2.42459e-06
-1.88922e-06
2.42907e-06
-2.09611e-06
2.39855e-06
-2.29519e-06
2.33529e-06
-2.4843e-06
2.24169e-06
-2.66158e-06
2.12021e-06
-2.82543e-06
1.97339e-06
-2.97445e-06
1.80373e-06
-3.10746e-06
1.61375e-06
-3.22344e-06
1.40594e-06
-3.32154e-06
1.18276e-06
-3.40101e-06
9.46651e-07
-3.46126e-06
7.00038e-07
-3.50177e-06
4.45353e-07
-3.52213e-06
1.85048e-07
-3.52205e-06
-7.8383e-08
-3.5013e-06
-3.42386e-07
-3.45979e-06
-6.04323e-07
-3.39755e-06
-8.61462e-07
-3.31473e-06
-1.11096e-06
-3.21167e-06
-1.34985e-06
-3.0889e-06
-1.57505e-06
-2.94718e-06
-1.78338e-06
-2.78752e-06
-1.97156e-06
-2.61125e-06
-2.13626e-06
-2.42002e-06
-2.27414e-06
-2.21585e-06
-2.38191e-06
-2.00116e-06
-2.4564e-06
-1.77879e-06
-2.49465e-06
-1.55198e-06
-2.49403e-06
-1.32441e-06
-2.45231e-06
-1.10015e-06
-2.36779e-06
-8.83625e-07
-2.23945e-06
-6.79573e-07
-2.067e-06
-4.92962e-07
-1.851e-06
-3.28906e-07
-1.59296e-06
-1.92571e-07
-1.29537e-06
-8.9062e-08
-9.61704e-07
-2.33213e-08
-5.96407e-07
-2.05123e-07
-2.4018e-08
2.3386e-07
-9.0836e-08
6.69126e-07
-1.95054e-07
1.06666e-06
-3.31232e-07
1.42268e-06
-4.94002e-07
1.73463e-06
-6.78159e-07
2.00092e-06
-8.7873e-07
2.22081e-06
-1.09104e-06
2.3944e-06
-1.31077e-06
2.52242e-06
-1.53395e-06
2.60624e-06
-1.757e-06
2.64765e-06
-1.97676e-06
2.64882e-06
-2.19039e-06
2.61219e-06
-2.39547e-06
2.54036e-06
-2.58986e-06
2.43608e-06
-2.77175e-06
2.3021e-06
-2.9396e-06
2.14123e-06
-3.09209e-06
1.95622e-06
-3.22812e-06
1.74978e-06
-3.34676e-06
1.52458e-06
-3.44721e-06
1.28322e-06
-3.52882e-06
1.02826e-06
-3.59102e-06
7.62239e-07
-3.63334e-06
4.87668e-07
-3.65537e-06
2.07079e-07
-3.65679e-06
-7.69585e-08
-3.63737e-06
-3.61814e-07
-3.59692e-06
-6.44764e-07
-3.53541e-06
-9.22973e-07
-3.4529e-06
-1.19347e-06
-3.34959e-06
-1.45316e-06
-3.22589e-06
-1.69875e-06
-3.08243e-06
-1.92685e-06
-2.92008e-06
-2.13391e-06
-2.74006e-06
-2.31629e-06
-2.54391e-06
-2.47029e-06
-2.33359e-06
-2.59223e-06
-2.1115e-06
-2.6785e-06
-1.88048e-06
-2.72567e-06
-1.64389e-06
-2.73062e-06
-1.40555e-06
-2.69064e-06
-1.16977e-06
-2.60357e-06
-9.41284e-07
-2.46794e-06
-7.25211e-07
-2.28307e-06
-5.26966e-07
-2.04924e-06
-3.52163e-07
-1.76776e-06
-2.06503e-07
-1.44103e-06
-9.56462e-08
-1.07256e-06
-2.50864e-08
-6.66966e-07
-2.30209e-07
-2.54606e-08
2.59321e-07
-9.61711e-08
7.39837e-07
-2.06265e-07
1.17676e-06
-3.49831e-07
1.56625e-06
-5.21041e-07
1.90584e-06
-7.1426e-07
2.19413e-06
-9.2413e-07
2.43068e-06
-1.14565e-06
2.61592e-06
-1.37422e-06
2.751e-06
-1.60568e-06
2.8377e-06
-1.83631e-06
2.87828e-06
-2.06283e-06
2.87535e-06
-2.28242e-06
2.83177e-06
-2.49262e-06
2.75057e-06
-2.69138e-06
2.63483e-06
-2.87694e-06
2.48766e-06
-3.04785e-06
2.31215e-06
-3.20292e-06
2.11129e-06
-3.34114e-06
1.888e-06
-3.4617e-06
1.64513e-06
-3.56389e-06
1.38541e-06
-3.64714e-06
1.11151e-06
-3.71095e-06
8.26046e-07
-3.75488e-06
5.316e-07
-3.77856e-06
2.30755e-07
-3.78164e-06
-7.38706e-08
-3.76386e-06
-3.79596e-07
-3.72499e-06
-6.8364e-07
-3.66487e-06
-9.83093e-07
-3.58345e-06
-1.27489e-06
-3.48082e-06
-1.55579e-06
-3.35722e-06
-1.82235e-06
-3.2131e-06
-2.07096e-06
-3.0492e-06
-2.29781e-06
-2.86656e-06
-2.49894e-06
-2.66658e-06
-2.67027e-06
-2.45112e-06
-2.80769e-06
-2.2225e-06
-2.90711e-06
-1.98357e-06
-2.96459e-06
-1.73775e-06
-2.97645e-06
-1.489e-06
-2.9394e-06
-1.24185e-06
-2.85072e-06
-1.00136e-06
-2.70843e-06
-7.73038e-07
-2.51139e-06
-5.62796e-07
-2.25949e-06
-3.76793e-07
-1.95376e-06
-2.21328e-07
-1.59649e-06
-1.02685e-07
-1.1912e-06
-2.69835e-08
-7.42668e-07
-2.57193e-07
-2.69759e-08
2.86297e-07
-1.01751e-07
8.14612e-07
-2.17941e-07
1.29295e-06
-3.69106e-07
1.71741e-06
-5.4891e-07
2.08564e-06
-7.51244e-07
2.39647e-06
-9.70334e-07
2.64977e-06
-1.20082e-06
2.84641e-06
-1.43784e-06
2.98801e-06
-1.677e-06
3.07686e-06
-1.91446e-06
3.11574e-06
-2.14689e-06
3.10778e-06
-2.37144e-06
3.05632e-06
-2.58569e-06
2.96483e-06
-2.78768e-06
2.83681e-06
-2.97575e-06
2.67574e-06
-3.1486e-06
2.485e-06
-3.30516e-06
2.26784e-06
-3.44456e-06
2.02741e-06
-3.56612e-06
1.76669e-06
-3.66927e-06
1.48856e-06
-3.75353e-06
1.19577e-06
-3.81849e-06
8.91005e-07
-3.86377e-06
5.76879e-07
-3.88901e-06
2.56003e-07
-3.8939e-06
-6.89893e-08
-3.87809e-06
-3.95398e-07
-3.84132e-06
-7.20417e-07
-3.78331e-06
-1.0411e-06
-3.70391e-06
-1.3543e-06
-3.60301e-06
-1.65668e-06
-3.4807e-06
-1.94467e-06
-3.33723e-06
-2.21443e-06
-3.17312e-06
-2.46192e-06
-2.98921e-06
-2.68284e-06
-2.78673e-06
-2.87274e-06
-2.56738e-06
-3.02704e-06
-2.33337e-06
-3.14112e-06
-2.08751e-06
-3.21046e-06
-1.83321e-06
-3.23074e-06
-1.57457e-06
-3.19803e-06
-1.31634e-06
-3.10896e-06
-1.06389e-06
-2.96088e-06
-8.23163e-07
-2.75211e-06
-6.00581e-07
-2.48207e-06
-4.02917e-07
-2.15143e-06
-2.37136e-07
-1.76227e-06
-1.10229e-07
-1.31811e-06
-2.90277e-08
-8.23869e-07
-2.86221e-07
-2.8577e-08
3.14874e-07
-1.07619e-07
8.93653e-07
-2.30159e-07
1.41549e-06
-3.89165e-07
1.87642e-06
-5.7773e-07
2.27421e-06
-7.89219e-07
2.60796e-06
-1.0174e-06
2.87796e-06
-1.25654e-06
3.08555e-06
-1.50147e-06
3.23294e-06
-1.74761e-06
3.323e-06
-1.99099e-06
3.35913e-06
-2.22824e-06
3.34503e-06
-2.45652e-06
3.2846e-06
-2.67352e-06
3.18182e-06