/*--------------------------------*- C++ -*----------------------------------*\
| =========                 |                                                 |
| \\      /  F ield         | OpenFOAM: The Open Source CFD Toolbox           |
|  \\    /   O peration     | Version:  v2012                                 |
|   \\  /    A nd           | Website:  www.openfoam.com                      |
|    \\/     M anipulation  |                                                 |
\*---------------------------------------------------------------------------*/
FoamFile
{
    version     2.0;
    format      ascii;
    class       volVectorField;
    location    "0.2";
    object      U;
}
// * * * * * * * * * * * * * * * * * * * * * * * * * * * * * * * * * * * * * //

dimensions      [0 1 -1 0 0 0 0];


internalField   nonuniform List<vector> 
2500
(
(3.2841e-05 -3.25691e-05 0)
(9.89682e-05 -4.05471e-05 0)
(0.000137294 -2.08965e-05 0)
(0.000106148 7.88043e-06 0)
(-8.75856e-06 3.7716e-05 0)
(-0.000205906 6.52991e-05 0)
(-0.00047797 8.93159e-05 0)
(-0.000815143 0.000109352 0)
(-0.00120649 0.000125382 0)
(-0.00164076 0.000137545 0)
(-0.00210681 0.000146046 0)
(-0.00259384 0.000151115 0)
(-0.00309157 0.000152993 0)
(-0.00359032 0.000151922 0)
(-0.00408101 0.00014814 0)
(-0.00455528 0.00014188 0)
(-0.00500542 0.00013337 0)
(-0.00542442 0.000122836 0)
(-0.00580599 0.000110496 0)
(-0.00614453 9.65686e-05 0)
(-0.00643515 8.12691e-05 0)
(-0.0066737 6.48149e-05 0)
(-0.00685673 4.74257e-05 0)
(-0.00698155 2.93253e-05 0)
(-0.00704624 1.07436e-05 0)
(-0.00704965 -8.08241e-06 0)
(-0.00699144 -2.69073e-05 0)
(-0.0068721 -4.54767e-05 0)
(-0.00669298 -6.35277e-05 0)
(-0.0064563 -8.07885e-05 0)
(-0.00616517 -9.69803e-05 0)
(-0.00582363 -0.000111818 0)
(-0.00543662 -0.000125015 0)
(-0.00501 -0.000136282 0)
(-0.00455052 -0.000145334 0)
(-0.0040658 -0.000151891 0)
(-0.0035643 -0.000155685 0)
(-0.00305524 -0.000156462 0)
(-0.00254852 -0.000153987 0)
(-0.00205463 -0.000148047 0)
(-0.00158455 -0.000138457 0)
(-0.00114952 -0.00012507 0)
(-0.000760887 -0.000107793 0)
(-0.00042978 -8.66224e-05 0)
(-0.000166589 -6.17408e-05 0)
(1.98281e-05 -3.37352e-05 0)
(0.000123536 -4.08498e-06 0)
(0.000144719 2.37595e-05 0)
(9.97054e-05 4.17327e-05 0)
(3.20923e-05 3.20296e-05 0)
(4.1151e-05 -9.87955e-05 0)
(9.4008e-05 -9.26639e-05 0)
(4.55356e-05 1.46269e-05 0)
(-0.000168578 0.000161787 0)
(-0.000575244 0.000318099 0)
(-0.00117581 0.000467559 0)
(-0.00195792 0.000601843 0)
(-0.00290135 0.000716891 0)
(-0.00398145 0.000810962 0)
(-0.00517135 0.000883594 0)
(-0.0064434 0.000935061 0)
(-0.00777008 0.000966073 0)
(-0.00912462 0.000977607 0)
(-0.0104814 0.000970804 0)
(-0.0118162 0.000946904 0)
(-0.0131065 0.000907209 0)
(-0.0143312 0.00085306 0)
(-0.0154713 0.000785819 0)
(-0.0165095 0.000706865 0)
(-0.0174305 0.000617592 0)
(-0.0182209 0.000519409 0)
(-0.0188692 0.000413747 0)
(-0.0193661 0.00030206 0)
(-0.0197043 0.000185837 0)
(-0.0198785 6.66041e-05 0)
(-0.0198857 -5.40698e-05 0)
(-0.0197251 -0.00017457 0)
(-0.0193983 -0.000293237 0)
(-0.018909 -0.000408365 0)
(-0.0182636 -0.000518212 0)
(-0.0174708 -0.000621005 0)
(-0.0165416 -0.000714955 0)
(-0.0154896 -0.000798275 0)
(-0.0143308 -0.000869199 0)
(-0.0130836 -0.000926007 0)
(-0.0117685 -0.000967053 0)
(-0.0104083 -0.0009908 0)
(-0.00902739 -0.000995853 0)
(-0.00765204 -0.000981005 0)
(-0.00630967 -0.000945286 0)
(-0.00502859 -0.000888033 0)
(-0.00383732 -0.00080899 0)
(-0.00276391 -0.000708465 0)
(-0.00183484 -0.000587611 0)
(-0.00107351 -0.000448926 0)
(-0.00049799 -0.000297248 0)
(-0.000117655 -0.000141583 0)
(7.23095e-05 1.59168e-06 0)
(0.000102807 0.000101732 0)
(4.21067e-05 9.97329e-05 0)
(2.25129e-05 -0.000138979 0)
(-9.9533e-06 -4.54988e-05 0)
(-0.000233813 0.000239575 0)
(-0.000705293 0.000608845 0)
(-0.00145016 0.00100196 0)
(-0.00246995 0.00138262 0)
(-0.00374885 0.0017293 0)
(-0.00525981 0.0020299 0)
(-0.00696877 0.00227809 0)
(-0.00883767 0.00247112 0)
(-0.0108265 0.00260852 0)
(-0.0128948 0.00269129 0)
(-0.0150026 0.00272139 0)
(-0.0171115 0.00270144 0)
(-0.0191846 0.0026345 0)
(-0.0211874 0.00252389 0)
(-0.0230878 0.00237315 0)
(-0.0248564 0.00218596 0)
(-0.0264665 0.00196609 0)
(-0.0278944 0.0017174 0)
(-0.0291193 0.00144383 0)
(-0.0301235 0.0011494 0)
(-0.0308926 0.000838201 0)
(-0.0314152 0.000514442 0)
(-0.0316834 0.000182425 0)
(-0.0316927 -0.000153433 0)
(-0.0314418 -0.000488595 0)
(-0.0309334 -0.000818412 0)
(-0.0301735 -0.00113813 0)
(-0.0291719 -0.00144291 0)
(-0.0279423 -0.00172785 0)
(-0.0265018 -0.00198804 0)
(-0.0248715 -0.00221859 0)
(-0.023076 -0.00241473 0)
(-0.0211436 -0.00257182 0)
(-0.0191056 -0.00268551 0)
(-0.0169967 -0.00275177 0)
(-0.0148541 -0.00276705 0)
(-0.0127171 -0.00272843 0)
(-0.0106271 -0.00263372 0)
(-0.00862576 -0.00248176 0)
(-0.00675514 -0.0022727 0)
(-0.00505572 -0.00200845 0)
(-0.00356507 -0.00169343 0)
(-0.00231555 -0.00133578 0)
(-0.00133137 -0.000949378 0)
(-0.000624438 -0.000557234 0)
(-0.000188715 -0.000196568 0)
(7.03821e-06 7.26516e-05 0)
(2.53249e-05 0.000146334 0)
(-4.88468e-06 -0.000112072 0)
(-0.000153698 0.000164577 0)
(-0.000599528 0.000709867 0)
(-0.00137211 0.00137893 0)
(-0.00248609 0.00208376 0)
(-0.00393885 0.00276706 0)
(-0.00570975 0.00339224 0)
(-0.00776548 0.00393705 0)
(-0.0100644 0.00438876 0)
(-0.0125598 0.00474098 0)
(-0.0152019 0.00499161 0)
(-0.0179402 0.00514149 0)
(-0.020724 0.00519347 0)
(-0.0235045 0.00515184 0)
(-0.0262344 0.00502186 0)
(-0.0288693 0.00480947 0)
(-0.0313678 0.00452113 0)
(-0.0336917 0.00416363 0)
(-0.0358063 0.00374405 0)
(-0.0376808 0.00326967 0)
(-0.0392881 0.00274797 0)
(-0.0406053 0.00218662 0)
(-0.0416134 0.00159345 0)
(-0.0422979 0.000976507 0)
(-0.0426483 0.000344021 0)
(-0.0426588 -0.000295555 0)
(-0.0423282 -0.000933564 0)
(-0.0416598 -0.00156115 0)
(-0.0406617 -0.00216927 0)
(-0.0393467 -0.00274876 0)
(-0.0377327 -0.00329037 0)
(-0.0358422 -0.00378487 0)
(-0.0337024 -0.00422309 0)
(-0.0313455 -0.00459613 0)
(-0.0288077 -0.00489541 0)
(-0.0261298 -0.00511294 0)
(-0.0233562 -0.00524142 0)
(-0.0205345 -0.00527456 0)
(-0.0177151 -0.00520728 0)
(-0.0149501 -0.00503611 0)
(-0.0122924 -0.00475961 0)
(-0.00979455 -0.00437894 0)
(-0.00750686 -0.00389873 0)
(-0.00547562 -0.00332825 0)
(-0.00374054 -0.00268333 0)
(-0.00233168 -0.00198922 0)
(-0.00126521 -0.00128504 0)
(-0.000538404 -0.000629637 0)
(-0.000129719 -0.000110828 0)
(-6.02646e-07 0.000130093 0)
(-3.36539e-05 -3.23021e-06 0)
(-0.000309751 0.000567523 0)
(-0.000999391 0.00145721 0)
(-0.00209617 0.00249557 0)
(-0.00359705 0.00357241 0)
(-0.00549137 0.00461189 0)
(-0.00775149 0.00556298 0)
(-0.0103371 0.0063929 0)
(-0.0131996 0.00708175 0)
(-0.0162846 0.00761871 0)
(-0.0195344 0.00799944 0)
(-0.0228898 0.00822421 0)
(-0.0262918 0.00829659 0)
(-0.0296827 0.00822257 0)
(-0.0330067 0.00800982 0)
(-0.0362113 0.0076673 0)
(-0.0392471 0.00720488 0)
(-0.0420686 0.00663308 0)
(-0.0446345 0.00596297 0)
(-0.0469079 0.00520602 0)
(-0.0488564 0.00437407 0)
(-0.0504525 0.00347927 0)
(-0.0516736 0.0025341 0)
(-0.0525021 0.00155137 0)
(-0.0529259 0.000544173 0)
(-0.052938 -0.000474026 0)
(-0.0525369 -0.00148947 0)
(-0.0517266 -0.00248809 0)
(-0.0505171 -0.00345559 0)
(-0.0489237 -0.00437748 0)
(-0.0469678 -0.00523917 0)
(-0.0446763 -0.00602613 0)
(-0.0420818 -0.00672404 0)
(-0.0392226 -0.00731898 0)
(-0.0361419 -0.00779767 0)
(-0.0328879 -0.00814776 0)
(-0.0295134 -0.00835814 0)
(-0.0260747 -0.00841932 0)
(-0.0226311 -0.0083239 0)
(-0.0192438 -0.00806709 0)
(-0.0159749 -0.0076474 0)
(-0.0128856 -0.00706754 0)
(-0.0100346 -0.00633557 0)
(-0.00747582 -0.00546658 0)
(-0.00525608 -0.00448501 0)
(-0.00341213 -0.00342807 0)
(-0.00196672 -0.0023506 0)
(-0.000924377 -0.00133101 0)
(-0.00027982 -0.000479958 0)
(-2.81665e-05 3.53513e-05 0)
(-6.10993e-05 0.000188377 0)
(-0.000465355 0.00117199 0)
(-0.00140535 0.00249537 0)
(-0.00283521 0.00397323 0)
(-0.00473057 0.00547914 0)
(-0.00706976 0.00692217 0)
(-0.00981603 0.00823864 0)
(-0.012921 0.0093859 0)
(-0.0163285 0.010337 0)
(-0.0199771 0.0110765 0)
(-0.0238017 0.0115975 0)
(-0.0277359 0.0118996 0)
(-0.0317132 0.011987 0)
(-0.0356687 0.0118674 0)
(-0.0395395 0.0115511 0)
(-0.0432659 0.0110504 0)
(-0.0467922 0.0103789 0)
(-0.0500667 0.00955146 0)
(-0.0530425 0.00858368 0)
(-0.0556775 0.00749185 0)
(-0.057935 0.00629284 0)
(-0.0597836 0.00500405 0)
(-0.0611976 0.00364333 0)
(-0.062157 0.00222904 0)
(-0.062648 0.000779978 0)
(-0.0626627 -0.000684589 0)
(-0.0621992 -0.00214496 0)
(-0.0612625 -0.00358102 0)
(-0.0598636 -0.00497235 0)
(-0.0580202 -0.00629829 0)
(-0.0557564 -0.00753811 0)
(-0.0531029 -0.00867117 0)
(-0.0500968 -0.00967721 0)
(-0.0467813 -0.0105366 0)
(-0.0432056 -0.0112306 0)
(-0.0394242 -0.011742 0)
(-0.0354966 -0.0120553 0)
(-0.0314866 -0.0121576 0)
(-0.0274609 -0.0120389 0)
(-0.0234888 -0.0116931 0)
(-0.0196399 -0.0111186 0)
(-0.0159834 -0.01032 0)
(-0.0125855 -0.0093092 0)
(-0.00950765 -0.00810733 0)
(-0.00680421 -0.00674758 0)
(-0.00451996 -0.00527867 0)
(-0.00268635 -0.00376967 0)
(-0.00131824 -0.00231548 0)
(-0.000430215 -0.00104422 0)
(-5.45598e-05 -0.000139208 0)
(-8.64415e-05 0.000459477 0)
(-0.000615115 0.00197686 0)
(-0.00180344 0.00382646 0)
(-0.00356635 0.00581554 0)
(-0.00585668 0.00780669 0)
(-0.00863983 0.00969757 0)
(-0.0118682 0.0114142 0)
(-0.0154841 0.0129053 0)
(-0.0194233 0.0141378 0)
(-0.0236169 0.0150917 0)
(-0.0279929 0.015758 0)
(-0.032478 0.0161355 0)
(-0.0369994 0.0162291 0)
(-0.0414856 0.0160485 0)
(-0.0458676 0.0156068 0)
(-0.05008 0.0149198 0)
(-0.0540613 0.0140054 0)
(-0.0577548 0.0128831 0)
(-0.0611087 0.0115735 0)
(-0.0640769 0.0100983 0)
(-0.0666188 0.00847996 0)
(-0.0686999 0.00674174 0)
(-0.0702918 0.00490751 0)
(-0.0713726 0.00300181 0)
(-0.0719268 0.0010498 0)
(-0.0719458 -0.000922737 0)
(-0.0714276 -0.00288947 0)
(-0.0703775 -0.00482355 0)
(-0.0688075 -0.00669771 0)
(-0.0667371 -0.00848444 0)
(-0.0641928 -0.0101561 0)
(-0.0612082 -0.0116854 0)
(-0.0578241 -0.0130453 0)
(-0.0540879 -0.0142099 0)
(-0.0500535 -0.0151545 0)
(-0.0457809 -0.0158565 0)
(-0.0413355 -0.0162955 0)
(-0.0367871 -0.0164548 0)
(-0.0322093 -0.0163215 0)
(-0.0276781 -0.015888 0)
(-0.0232704 -0.0151527 0)
(-0.0190626 -0.0141219 0)
(-0.0151284 -0.0128112 0)
(-0.0115371 -0.0112477 0)
(-0.0083515 -0.00947283 0)
(-0.00562555 -0.00754561 0)
(-0.00340131 -0.00554741 0)
(-0.0017059 -0.00358638 0)
(-0.00057536 -0.00180334 0)
(-7.89393e-05 -0.000390659 0)
(-0.000109696 0.000805719 0)
(-0.000757431 0.00297664 0)
(-0.00218798 0.00544638 0)
(-0.00427905 0.00801971 0)
(-0.00696058 0.0105525 0)
(-0.0101839 0.0129342 0)
(-0.0138895 0.0150831 0)
(-0.0180092 0.0169413 0)
(-0.02247 0.0184702 0)
(-0.0271952 0.0196464 0)
(-0.0321057 0.0204591 0)
(-0.0371219 0.0209066 0)
(-0.0421647 0.020995 0)
(-0.0471567 0.020736 0)
(-0.0520238 0.0201458 0)
(-0.0566953 0.0192444 0)
(-0.061105 0.018054 0)
(-0.0651918 0.0165991 0)
(-0.0689001 0.0149061 0)
(-0.07218 0.0130022 0)
(-0.074988 0.010916 0)
(-0.0772868 0.00867723 0)
(-0.0790458 0.00631619 0)
(-0.0802414 0.00386417 0)
(-0.0808569 0.00135325 0)
(-0.0808827 -0.00118375 0)
(-0.0803168 -0.00371328 0)
(-0.0791646 -0.00620118 0)
(-0.0774389 -0.00861279 0)
(-0.0751605 -0.0109131 0)
(-0.0723577 -0.0130671 0)
(-0.0690665 -0.0150401 0)
(-0.0653306 -0.0167978 0)
(-0.0612009 -0.0183075 0)
(-0.0567354 -0.0195379 0)
(-0.0519985 -0.0204604 0)
(-0.0470606 -0.0210496 0)
(-0.0419972 -0.0212843 0)
(-0.0368879 -0.0211484 0)
(-0.0318149 -0.0206324 0)
(-0.026862 -0.0197346 0)
(-0.0221129 -0.0184624 0)
(-0.0176491 -0.0168349 0)
(-0.0135481 -0.0148844 0)
(-0.00988189 -0.0126596 0)
(-0.0067151 -0.0102286 0)
(-0.00410158 -0.00768293 0)
(-0.00208187 -0.00514103 0)
(-0.000713651 -0.0027527 0)
(-0.000101294 -0.000714922 0)
(-0.000131166 0.00122278 0)
(-0.000892517 0.00416428 0)
(-0.00255784 0.00734825 0)
(-0.0049701 0.0105799 0)
(-0.00803696 0.0137114 0)
(-0.0116953 0.0166271 0)
(-0.0158727 0.0192396 0)
(-0.0204899 0.0214861 0)
(-0.0254645 0.0233241 0)
(-0.0307114 0.0247278 0)
(-0.0361444 0.0256852 0)
(-0.0416773 0.0261949 0)
(-0.047225 0.0262644 0)
(-0.0527049 0.0259081 0)
(-0.0580378 0.0251457 0)
(-0.0631486 0.0240013 0)
(-0.067967 0.0225022 0)
(-0.0724281 0.0206785 0)
(-0.076473 0.018562 0)
(-0.0800488 0.0161864 0)
(-0.0831094 0.0135869 0)
(-0.0856153 0.0107998 0)
(-0.087534 0.0078623 0)
(-0.0888404 0.00481298 0)
(-0.0895167 0.00169119 0)
(-0.0895527 -0.00146274 0)
(-0.0889458 -0.00460763 0)
(-0.0877016 -0.00770153 0)
(-0.0858334 -0.0107019 0)
(-0.0833628 -0.0135658 0)
(-0.0803196 -0.0162503 0)
(-0.0767415 -0.0187127 0)
(-0.0726745 -0.0209112 0)
(-0.0681724 -0.0228055 0)
(-0.0632965 -0.0243573 0)
(-0.0581151 -0.0255316 0)
(-0.052703 -0.0262972 0)
(-0.0471409 -0.026628 0)
(-0.0415137 -0.0265043 0)
(-0.0359099 -0.0259142 0)
(-0.0304202 -0.0248551 0)
(-0.0251354 -0.0233353 0)
(-0.0201453 -0.0213763 0)
(-0.0155364 -0.0190151 0)
(-0.011391 -0.0163064 0)
(-0.00778491 -0.0133257 0)
(-0.0047849 -0.0101728 0)
(-0.00244548 -0.00697428 0)
(-0.000845438 -0.00388627 0)
(-0.000121939 -0.00110797 0)
(-0.000151225 0.00170687 0)
(-0.00102138 0.0055328 0)
(-0.00291427 0.00952454 0)
(-0.00564045 0.0134892 0)
(-0.00908622 0.0172774 0)
(-0.0131739 0.0207706 0)
(-0.0178179 0.0238779 0)
(-0.0229274 0.0265333 0)
(-0.0284096 0.0286919 0)
(-0.0341709 0.0303266 0)
(-0.0401176 0.0314252 0)
(-0.0461567 0.0319875 0)
(-0.0521975 0.0320229 0)
(-0.0581521 0.0315491 0)
(-0.0639368 0.0305898 0)
(-0.0694723 0.0291738 0)
(-0.0746847 0.0273337 0)
(-0.079506 0.0251054 0)
(-0.0838743 0.022527 0)
(-0.0877344 0.0196387 0)
(-0.0910379 0.0164826 0)
(-0.0937434 0.013102 0)
(-0.095817 0.00954147 0)
(-0.0972323 0.00584698 0)
(-0.0979703 0.00206558 0)
(-0.0980203 -0.00175459 0)
(-0.0973792 -0.00556435 0)
(-0.0960524 -0.00931361 0)
(-0.0940535 -0.0129516 0)
(-0.0914045 -0.016427 0)
(-0.088136 -0.0196886 0)
(-0.0842873 -0.0226853 0)
(-0.079906 -0.0253671 0)
(-0.0750481 -0.0276858 0)
(-0.0697776 -0.0295955 0)
(-0.0641665 -0.0310541 0)
(-0.0582934 -0.0320241 0)
(-0.0522434 -0.032474 0)
(-0.0461071 -0.0323797 0)
(-0.039979 -0.0317263 0)
(-0.0339565 -0.0305094 0)
(-0.0281383 -0.0287376 0)
(-0.0226228 -0.026434 0)
(-0.0175063 -0.0236389 0)
(-0.0128817 -0.0204118 0)
(-0.00883749 -0.0168344 0)
(-0.00545355 -0.0130132 0)
(-0.00279865 -0.00908085 0)
(-0.000971975 -0.00519839 0)
(-0.000141286 -0.00156643 0)
(-0.000170239 0.00225496 0)
(-0.00114534 0.00707613 0)
(-0.00325962 0.0119683 0)
(-0.00629326 0.0167409 0)
(-0.0101121 0.0212446 0)
(-0.014624 0.0253595 0)
(-0.01973 0.0289931 0)
(-0.0253271 0.0320778 0)
(-0.0313121 0.0345678 0)
(-0.0375824 0.036436 0)
(-0.0440362 0.0376712 0)
(-0.050574 0.038275 0)
(-0.057099 0.0382601 0)
(-0.0635186 0.0376476 0)
(-0.0697444 0.0364661 0)
(-0.0756936 0.0347494 0)
(-0.081289 0.0325362 0)
(-0.0864598 0.0298683 0)
(-0.0911417 0.0267905 0)
(-0.0952774 0.0233501 0)
(-0.0988167 0.0195961 0)
(-0.101717 0.0155791 0)
(-0.103943 0.0113513 0)
(-0.105466 0.00696641 0)
(-0.106268 0.0024793 0)
(-0.106337 -0.00205379 0)
(-0.105668 -0.00657547 0)
(-0.104268 -0.0110273 0)
(-0.102149 -0.0153498 0)
(-0.0993342 -0.0194833 0)
(-0.0958541 -0.0233675 0)
(-0.0917488 -0.0269429 0)
(-0.0870673 -0.0301506 0)
(-0.0818673 -0.032934 0)
(-0.0762151 -0.0352392 0)
(-0.0701855 -0.0370162 0)
(-0.0638609 -0.0382205 0)
(-0.0573306 -0.0388146 0)
(-0.0506905 -0.0387691 0)
(-0.0440411 -0.0380652 0)
(-0.037487 -0.036696 0)
(-0.0311351 -0.0346692 0)
(-0.0250928 -0.0320085 0)
(-0.0194668 -0.0287563 0)
(-0.0143618 -0.0249759 0)
(-0.00987905 -0.0207536 0)
(-0.00611231 -0.0162012 0)
(-0.00314463 -0.0114566 0)
(-0.0010949 -0.00668472 0)
(-0.000159755 -0.0020878 0)
(-0.000188535 0.00286478 0)
(-0.00126575 0.00878952 0)
(-0.00359674 0.0146738 0)
(-0.00693275 0.0203294 0)
(-0.0111199 0.0256079 0)
(-0.0160518 0.0303894 0)
(-0.0216161 0.0345811 0)
(-0.0276973 0.0381154 0)
(-0.0341814 0.0409473 0)
(-0.0409564 0.0430509 0)
(-0.0479124 0.044417 0)
(-0.054943 0.0450505 0)
(-0.0619455 0.0449678 0)
(-0.0688223 0.0441947 0)
(-0.0754809 0.042765 0)
(-0.081835 0.0407186 0)
(-0.0878045 0.0381001 0)
(-0.0933162 0.0349582 0)
(-0.0983039 0.0313447 0)
(-0.102709 0.0273139 0)
(-0.106478 0.0229223 0)
(-0.10957 0.018228 0)
(-0.111946 0.0132909 0)
(-0.113579 0.00817265 0)
(-0.114447 0.00293607 0)
(-0.11454 -0.00235442 0)
(-0.113851 -0.007633 0)
(-0.112386 -0.0128327 0)
(-0.110159 -0.0178853 0)
(-0.10719 -0.0227221 0)
(-0.103511 -0.027274 0)
(-0.0991618 -0.0314722 0)
(-0.094193 -0.0352488 0)
(-0.088663 -0.0385381 0)
(-0.0826401 -0.0412775 0)
(-0.0762014 -0.0434087 0)
(-0.0694326 -0.0448793 0)
(-0.0624274 -0.0456447 0)
(-0.0552865 -0.0456695 0)
(-0.0481168 -0.04493 0)
(-0.0410302 -0.0434158 0)
(-0.034142 -0.0411321 0)
(-0.0275695 -0.0381024 0)
(-0.0214304 -0.0343699 0)
(-0.0158415 -0.0300004 0)
(-0.0109178 -0.0250838 0)
(-0.00676729 -0.019736 0)
(-0.00348729 -0.0140993 0)
(-0.00121596 -0.00834268 0)
(-0.000177739 -0.00267056 0)
(-0.000206399 0.00353483 0)
(-0.00138393 0.0106696 0)
(-0.00392854 0.0176369 0)
(-0.00756352 0.0242506 0)
(-0.0121157 0.0303635 0)
(-0.0174649 0.0358568 0)
(-0.0234848 0.0406387 0)
(-0.0300475 0.0446431 0)
(-0.0370279 0.047827 0)
(-0.0443042 0.0501672 0)
(-0.0517583 0.0516579 0)
(-0.0592766 0.0523083 0)
(-0.0667507 0.0521395 0)
(-0.074078 0.0511832 0)
(-0.081162 0.049479 0)
(-0.0879133 0.0470732 0)
(-0.0942491 0.0440176 0)
(-0.100094 0.0403678 0)
(-0.105381 0.036183 0)
(-0.110049 0.0315249 0)
(-0.114045 0.0264575 0)
(-0.117325 0.0210468 0)
(-0.119851 0.0153605 0)
(-0.121594 0.00946793 0)
(-0.122533 0.00344021 0)
(-0.122655 -0.00265004 0)
(-0.121954 -0.0087286 0)
(-0.120434 -0.0147198 0)
(-0.118108 -0.0205467 0)
(-0.114997 -0.0261314 0)
(-0.111132 -0.0313954 0)
(-0.106553 -0.0362606 0)
(-0.101309 -0.0406496 0)
(-0.0954613 -0.0444871 0)
(-0.0890781 -0.0477009 0)
(-0.0822391 -0.0502239 0)
(-0.0750329 -0.0519948 0)
(-0.067557 -0.052961 0)
(-0.0599173 -0.0530799 0)
(-0.052227 -0.0523217 0)
(-0.0446054 -0.0506712 0)
(-0.0371767 -0.0481302 0)
(-0.0300688 -0.0447202 0)
(-0.0234108 -0.0404844 0)
(-0.0173326 -0.0354894 0)
(-0.0119631 -0.0298278 0)
(-0.00742516 -0.0236189 0)
(-0.00383068 -0.0170093 0)
(-0.00133691 -0.0101717 0)
(-0.000195597 -0.00331413 0)
(-0.000224077 0.00426427 0)
(-0.00150109 0.0127145 0)
(-0.00425785 0.0208553 0)
(-0.00819015 0.0285021 0)
(-0.0131059 0.0355092 0)
(-0.0188707 0.0417596 0)
(-0.0253448 0.0471638 0)
(-0.0323874 0.0516586 0)
(-0.0398618 0.0552041 0)
(-0.0476366 0.0577814 0)
(-0.0555849 0.0593896 0)
(-0.0635862 0.0600431 0)
(-0.071526 0.0597692 0)
(-0.079297 0.0586062 0)
(-0.0867991 0.0566005 0)
(-0.0939397 0.0538059 0)
(-0.100634 0.0502813 0)
(-0.106805 0.0460902 0)
(-0.112384 0.0412993 0)
(-0.117309 0.0359782 0)
(-0.121528 0.0301985 0)
(-0.124993 0.0240341 0)
(-0.127669 0.0175605 0)
(-0.129524 0.0108549 0)
(-0.130537 0.00399661 0)
(-0.130694 -0.0029337 0)
(-0.129989 -0.0098534 0)
(-0.128425 -0.0166782 0)
(-0.126013 -0.0233221 0)
(-0.122773 -0.0296982 0)
(-0.118735 -0.0357185 0)
(-0.113939 -0.0412951 0)
(-0.108435 -0.0463406 0)
(-0.102281 -0.0507695 0)
(-0.0955487 -0.0544999 0)
(-0.0883186 -0.0574541 0)
(-0.0806819 -0.0595616 0)
(-0.0727398 -0.0607605 0)
(-0.0646031 -0.0609999 0)
(-0.0563913 -0.0602422 0)
(-0.0482315 -0.0584662 0)
(-0.0402572 -0.055669 0)
(-0.032607 -0.0518685 0)
(-0.0254225 -0.0471063 0)
(-0.018847 -0.0414492 0)
(-0.0130244 -0.0349912 0)
(-0.00809273 -0.0278544 0)
(-0.00417885 -0.0201892 0)
(-0.00145942 -0.012173 0)
(-0.000213656 -0.00401887 0)
(-0.000241779 0.00505286 0)
(-0.00161832 0.0149236 0)
(-0.00458729 0.0243282 0)
(-0.008817 0.033083 0)
(-0.0140964 0.0410441 0)
(-0.0202769 0.0480969 0)
(-0.0272047 0.0541554 0)
(-0.0347261 0.0591602 0)
(-0.0426928 0.0630763 0)
(-0.050963 0.0658904 0)
(-0.0594015 0.0676077 0)
(-0.0678804 0.0682495 0)
(-0.0762794 0.0678505 0)
(-0.0844866 0.0664564 0)
(-0.0923983 0.0641218 0)
(-0.0999194 0.0609083 0)
(-0.106963 0.0568832 0)
(-0.113452 0.0521179 0)
(-0.119315 0.0466871 0)
(-0.124491 0.0406685 0)
(-0.128926 0.0341417 0)
(-0.132575 0.0271883 0)
(-0.135399 0.0198915 0)
(-0.137368 0.0123366 0)
(-0.13846 0.00461049 0)
(-0.138659 -0.00319794 0)
(-0.137958 -0.0109978 0)
(-0.13636 -0.0186964 0)
(-0.133875 -0.0261988 0)
(-0.13052 -0.0334089 0)
(-0.126325 -0.0402291 0)
(-0.121328 -0.0465613 0)
(-0.115578 -0.052308 0)
(-0.109133 -0.0573731 0)
(-0.102064 -0.0616634 0)
(-0.0944541 -0.0650908 0)
(-0.0863954 -0.0675738 0)
(-0.0779927 -0.06904 0)
(-0.0693616 -0.0694287 0)
(-0.0606278 -0.0686937 0)
(-0.0519264 -0.0668055 0)
(-0.0434006 -0.063755 0)
(-0.0352002 -0.0595552 0)
(-0.0274797 -0.0542446 0)
(-0.020397 -0.0478887 0)
(-0.0141113 -0.0405821 0)
(-0.00877668 -0.0324493 0)
(-0.00453573 -0.0236445 0)
(-0.00158509 -0.0143502 0)
(-0.000232213 -0.00478597 0)
(-0.000259689 0.00590092 0)
(-0.00173661 0.0172976 0)
(-0.00491926 0.0280564 0)
(-0.00944813 0.0379943 0)
(-0.0150928 0.046969 0)
(-0.0216902 0.0548693 0)
(-0.0290723 0.0616131 0)
(-0.037072 0.0671467 0)
(-0.0455292 0.0714412 0)
(-0.0542916 0.0744903 0)
(-0.0632153 0.0763071 0)
(-0.0721651 0.076921 0)
(-0.0810152 0.0763756 0)
(-0.0896492 0.0747252 0)
(-0.0979602 0.0720335 0)
(-0.105851 0.068371 0)
(-0.113233 0.0638137 0)
(-0.120028 0.0584418 0)
(-0.126166 0.0523386 0)
(-0.131584 0.0455896 0)
(-0.13623 0.0382826 0)
(-0.140057 0.030507 0)
(-0.143028 0.0223537 0)
(-0.145112 0.0139156 0)
(-0.146286 0.00528722 0)
(-0.146534 -0.00343475 0)
(-0.145848 -0.0121515 0)
(-0.144228 -0.0207618 0)
(-0.141684 -0.0291624 0)
(-0.138231 -0.0372477 0)
(-0.133896 -0.0449106 0)
(-0.128716 -0.0520428 0)
(-0.122737 -0.058536 0)
(-0.116019 -0.0642828 0)
(-0.10863 -0.0691786 0)
(-0.100653 -0.0731232 0)
(-0.0921836 -0.0760233 0)
(-0.0833282 -0.0777946 0)
(-0.074207 -0.078365 0)
(-0.064952 -0.0776777 0)
(-0.0557062 -0.0756937 0)
(-0.0466229 -0.0723955 0)
(-0.0378635 -0.0677897 0)
(-0.0295963 -0.0619099 0)
(-0.0219941 -0.0548191 0)
(-0.0152329 -0.0466116 0)
(-0.00948347 -0.0374135 0)
(-0.00490508 -0.027383 0)
(-0.00171541 -0.0167085 0)
(-0.000251541 -0.00561744 0)
(-0.000277969 0.00680925 0)
(-0.00185683 0.0198382 0)
(-0.00525598 0.0320424 0)
(-0.0100873 0.0432384 0)
(-0.0161003 0.0532861 0)
(-0.023117 0.062078 0)
(-0.0309548 0.0695374 0)
(-0.0394325 0.075617 0)
(-0.0483779 0.080296 0)
(-0.0576282 0.0835766 0)
(-0.0670307 0.0854813 0)
(-0.076443 0.0860495 0)
(-0.0857336 0.0853347 0)
(-0.0947823 0.0834015 0)
(-0.103479 0.0803236 0)
(-0.111725 0.0761815 0)
(-0.119432 0.0710607 0)
(-0.12652 0.0650506 0)
(-0.13292 0.0582433 0)
(-0.138569 0.0507329 0)
(-0.143417 0.0426149 0)
(-0.147416 0.0339865 0)
(-0.150531 0.0249462 0)
(-0.152729 0.0155941 0)
(-0.153988 0.00603213 0)
(-0.154292 -0.00363569 0)
(-0.153631 -0.0133029 0)
(-0.152004 -0.0228604 0)
(-0.149416 -0.0321965 0)
(-0.145883 -0.0411965 0)
(-0.141429 -0.0497439 0)
(-0.136087 -0.0577199 0)
(-0.129903 -0.0650051 0)
(-0.122931 -0.0714805 0)
(-0.115242 -0.077029 0)
(-0.106916 -0.0815374 0)
(-0.0980503 -0.0848992 0)
(-0.0887532 -0.0870169 0)
(-0.0791491 -0.0878052 0)
(-0.0693758 -0.0871947 0)
(-0.0595844 -0.0851349 0)
(-0.0499381 -0.081598 0)
(-0.0406108 -0.0765821 0)
(-0.0317849 -0.0701144 0)
(-0.0236495 -0.0622538 0)
(-0.0163979 -0.0530929 0)
(-0.0102193 -0.0427594 0)
(-0.00529048 -0.0314151 0)
(-0.00185181 -0.019255 0)
(-0.000271897 -0.00651604 0)
(-0.000296764 0.00777908 0)
(-0.00197981 0.0225485 0)
(-0.00559949 0.0362898 0)
(-0.0107378 0.0488192 0)
(-0.0171236 0.0599988 0)
(-0.0245631 0.0697254 0)
(-0.0328582 0.0779288 0)
(-0.0418136 0.0845698 0)
(-0.0512443 0.089637 0)
(-0.0609768 0.0931432 0)
(-0.0708494 0.0951219 0)
(-0.0807128 0.0956241 0)
(-0.0904303 0.0947149 0)
(-0.0998778 0.0924708 0)
(-0.108943 0.0889767 0)
(-0.117527 0.0843239 0)
(-0.12554 0.0786084 0)
(-0.132903 0.0719294 0)
(-0.139547 0.0643879 0)
(-0.145414 0.0560868 0)
(-0.15045 0.0471296 0)
(-0.154613 0.0376209 0)
(-0.157866 0.0276665 0)
(-0.160177 0.0173734 0)
(-0.161525 0.00685026 0)
(-0.161891 -0.00379198 0)
(-0.161266 -0.0144397 0)
(-0.159645 -0.0249765 0)
(-0.157034 -0.0352825 0)
(-0.153443 -0.0452345 0)
(-0.148893 -0.0547064 0)
(-0.143415 -0.0635691 0)
(-0.13705 -0.071692 0)
(-0.129852 -0.0789436 0)
(-0.121887 -0.0851937 0)
(-0.113235 -0.0903152 0)
(-0.103992 -0.0941868 0)
(-0.0942688 -0.096696 0)
(-0.0841928 -0.0977428 0)
(-0.0739073 -0.0972428 0)
(-0.0635712 -0.0951318 0)
(-0.053358 -0.0913695 0)
(-0.0434541 -0.0859432 0)
(-0.0340572 -0.0788716 0)
(-0.0253733 -0.070208 0)
(-0.0176147 -0.060042 0)
(-0.01099 -0.0485018 0)
(-0.00569536 -0.0357533 0)
(-0.00199565 -0.0219984 0)
(-0.000293523 -0.00748526 0)
(-0.000316211 0.00881206 0)
(-0.00210633 0.0254321 0)
(-0.00595173 0.0408037 0)
(-0.0114031 0.054742 0)
(-0.0181673 0.0671115 0)
(-0.0260337 0.0778143 0)
(-0.0347882 0.0867881 0)
(-0.0442203 0.0940031 0)
(-0.054132 0.0994593 0)
(-0.0643388 0.103182 0)
(-0.0746701 0.105217 0)
(-0.0849697 0.10563 0)
(-0.095096 0.1045 0)
(-0.104922 0.101915 0)
(-0.114334 0.0979727 0)
(-0.123231 0.0927776 0)
(-0.131526 0.0864364 0)
(-0.139141 0.0790585 0)
(-0.14601 0.0707546 0)
(-0.152073 0.0616361 0)
(-0.157283 0.0518145 0)
(-0.161597 0.0414017 0)
(-0.164979 0.0305102 0)
(-0.1674 0.0192533 0)
(-0.168837 0.00774599 0)
(-0.169273 -0.0038946 0)
(-0.168694 -0.0155485 0)
(-0.167097 -0.0270924 0)
(-0.164482 -0.0383991 0)
(-0.160858 -0.0493372 0)
(-0.15624 -0.0597714 0)
(-0.150657 -0.0695623 0)
(-0.144144 -0.0785679 0)
(-0.136751 -0.0866439 0)
(-0.128541 -0.0936462 0)
(-0.119591 -0.0994326 0)
(-0.109997 -0.103866 0)
(-0.0998689 -0.106816 0)
(-0.0893373 -0.108167 0)
(-0.0785501 -0.107817 0)
(-0.0676736 -0.105685 0)
(-0.0568917 -0.101716 0)
(-0.046404 -0.0958833 0)
(-0.0364237 -0.0881958 0)
(-0.0271752 -0.0786983 0)
(-0.018891 -0.0674766 0)
(-0.0118012 -0.0546582 0)
(-0.00612305 -0.0404125 0)
(-0.00214825 -0.0249493 0)
(-0.000316657 -0.00852926 0)
(-0.000336447 0.00991021 0)
(-0.00223714 0.0284938 0)
(-0.00631463 0.0455902 0)
(-0.0120864 0.061013 0)
(-0.0192355 0.0746295 0)
(-0.0275338 0.0863482 0)
(-0.0367495 0.0961156 0)
(-0.0466564 0.103914 0)
(-0.057043 0.109756 0)
(-0.0677134 0.113681 0)
(-0.0784881 0.115753 0)
(-0.0892044 0.11605 0)
(-0.0997162 0.114667 0)
(-0.109894 0.111708 0)
(-0.119624 0.107286 0)
(-0.128805 0.101516 0)
(-0.137352 0.0945184 0)
(-0.14519 0.0864129 0)
(-0.152254 0.0773203 0)
(-0.158491 0.0673605 0)
(-0.163853 0.0566531 0)
(-0.1683 0.0453166 0)
(-0.1718 0.0334698 0)
(-0.174324 0.0212317 0)
(-0.175851 0.00872276 0)
(-0.176361 -0.00393458 0)
(-0.175842 -0.0166148 0)
(-0.174286 -0.0291886 0)
(-0.171691 -0.041522 0)
(-0.168062 -0.0534763 0)
(-0.163409 -0.0649073 0)
(-0.157756 -0.0756657 0)
(-0.151132 -0.0855979 0)
(-0.143583 -0.0945468 0)
(-0.135167 -0.102353 0)
(-0.125956 -0.108859 0)
(-0.116043 -0.113909 0)
(-0.105539 -0.117356 0)
(-0.0945749 -0.119062 0)
(-0.0833021 -0.118907 0)
(-0.0718943 -0.116791 0)
(-0.0605455 -0.11264 0)
(-0.0494685 -0.106412 0)
(-0.0388933 -0.098101 0)
(-0.0290638 -0.0877428 0)
(-0.0202344 -0.0754164 0)
(-0.0126584 -0.0612478 0)
(-0.00657678 -0.0454097 0)
(-0.00231093 -0.0281199 0)
(-0.00034154 -0.00965289 0)
(-0.000357616 0.011076 0)
(-0.00237306 0.0317395 0)
(-0.00669018 0.0506568 0)
(-0.0127909 0.0676398 0)
(-0.0203327 0.082559 0)
(-0.029068 0.0953303 0)
(-0.0387464 0.105911 0)
(-0.049125 0.114297 0)
(-0.0599778 0.120516 0)
(-0.0710974 0.124627 0)
(-0.0822956 0.126708 0)
(-0.0934033 0.126859 0)
(-0.104271 0.125189 0)
(-0.114767 0.121822 0)
(-0.124778 0.116884 0)
(-0.134206 0.110506 0)
(-0.142968 0.102821 0)
(-0.150991 0.0939607 0)
(-0.158217 0.0840555 0)
(-0.164594 0.0732342 0)
(-0.17008 0.0616237 0)
(-0.17464 0.0493491 0)
(-0.178241 0.0365346 0)
(-0.18086 0.0233042 0)
(-0.182473 0.00978264 0)
(-0.183063 -0.00390316 0)
(-0.182615 -0.0176232 0)
(-0.18112 -0.0312432 0)
(-0.178571 -0.0446237 0)
(-0.174968 -0.0576191 0)
(-0.170319 -0.0700772 0)
(-0.164638 -0.0818392 0)
(-0.157949 -0.0927402 0)
(-0.150291 -0.10261 0)
(-0.141715 -0.111273 0)
(-0.132289 -0.118556 0)
(-0.1221 -0.124283 0)
(-0.111257 -0.128285 0)
(-0.0998904 -0.130405 0)
(-0.0881554 -0.130498 0)
(-0.0762314 -0.128442 0)
(-0.064322 -0.124142 0)
(-0.0526538 -0.117536 0)
(-0.0414738 -0.108601 0)
(-0.031047 -0.0973598 0)
(-0.0216516 -0.0838825 0)
(-0.0135669 -0.0682921 0)
(-0.0070598 -0.0507638 0)
(-0.00248501 -0.0315238 0)
(-0.000368415 -0.0108617 0)
(-0.000379876 0.0123122 0)
(-0.00251499 0.0351759 0)
(-0.00708059 0.0560122 0)
(-0.0135201 0.074631 0)
(-0.0214634 0.0909068 0)
(-0.0306412 0.104764 0)
(-0.0407831 0.116173 0)
(-0.0516281 0.125145 0)
(-0.0629352 0.131728 0)
(-0.0744852 0.135999 0)
(-0.086081 0.138059 0)
(-0.0975481 0.138025 0)
(-0.108734 0.136031 0)
(-0.119507 0.132216 0)
(-0.129754 0.126725 0)
(-0.139382 0.119705 0)
(-0.14831 0.111303 0)
(-0.156474 0.101662 0)
(-0.163817 0.0909232 0)
(-0.170296 0.0792242 0)
(-0.175873 0.0666986 0)
(-0.180515 0.0534775 0)
(-0.184198 0.0396898 0)
(-0.186896 0.0254631 0)
(-0.188591 0.0109258 0)
(-0.189263 -0.00379219 0)
(-0.188899 -0.0185577 0)
(-0.187485 -0.0332326 0)
(-0.185011 -0.0476732 0)
(-0.181473 -0.061728 0)
(-0.17687 -0.075238 0)
(-0.17121 -0.0880355 0)
(-0.164509 -0.0999445 0)
(-0.156798 -0.110781 0)
(-0.148119 -0.120356 0)
(-0.138533 -0.128474 0)
(-0.128122 -0.134941 0)
(-0.116987 -0.139565 0)
(-0.10526 -0.142164 0)
(-0.0930952 -0.142566 0)
(-0.0806777 -0.140625 0)
(-0.0682204 -0.136218 0)
(-0.0559632 -0.12926 0)
(-0.0441713 -0.119709 0)
(-0.033132 -0.107568 0)
(-0.0231497 -0.0928971 0)
(-0.014532 -0.0758142 0)
(-0.00757542 -0.0564958 0)
(-0.00267187 -0.0351763 0)
(-0.000397544 -0.0121619 0)
(-0.000403417 0.0136222 0)
(-0.00266395 0.0388109 0)
(-0.00748838 0.0616666 0)
(-0.0142783 0.0819966 0)
(-0.0226326 0.0996803 0)
(-0.0322587 0.114652 0)
(-0.0428638 0.126898 0)
(-0.0541675 0.136449 0)
(-0.065913 0.143374 0)
(-0.0778687 0.147773 0)
(-0.0898293 0.149771 0)
(-0.101615 0.149511 0)
(-0.113072 0.147148 0)
(-0.12407 0.142842 0)
(-0.134498 0.136759 0)
(-0.144268 0.129062 0)
(-0.153306 0.119913 0)
(-0.161553 0.109467 0)
(-0.168961 0.0978778 0)
(-0.175493 0.0852894 0)
(-0.181117 0.0718429 0)
(-0.185808 0.057674 0)
(-0.189544 0.0429153 0)
(-0.192304 0.0276972 0)
(-0.194071 0.0121501 0)
(-0.194829 -0.00359447 0)
(-0.194559 -0.0194015 0)
(-0.193248 -0.035131 0)
(-0.190881 -0.0506358 0)
(-0.187448 -0.0657606 0)
(-0.18294 -0.0803403 0)
(-0.177358 -0.0941994 0)