/*--------------------------------*- C++ -*----------------------------------*\
| =========                 |                                                 |
| \\      /  F ield         | OpenFOAM: The Open Source CFD Toolbox           |
|  \\    /   O peration     | Version:  v2012                                 |
|   \\  /    A nd           | Website:  www.openfoam.com                      |
|    \\/     M anipulation  |                                                 |
\*---------------------------------------------------------------------------*/
FoamFile
{
    version     2.0;
    format      ascii;
    class       volScalarField;
    location    "0.3";
    object      p;
}
// * * * * * * * * * * * * * * * * * * * * * * * * * * * * * * * * * * * * * //

dimensions      [0 2 -2 0 0 0 0];


internalField   nonuniform List<scalar> 
1250
(
6.35805e-06
-0.000555336
-0.00229294
-0.00491581
-0.0080062
-0.0112343
-0.014343
-0.017132
-0.01945
-0.0211861
-0.0222626
-0.0226288
-0.0222571
-0.0211386
-0.0192807
-0.0167043
-0.0134424
-0.00953799
-0.00504296
-1.69073e-05
0.00547384
0.0113571
0.0175558
0.0239884
0.03057
0.000575602
1.24672e-05
-0.00142786
-0.00352269
-0.00597754
-0.00855109
-0.011041
-0.0132803
-0.0151367
-0.0165091
-0.0173233
-0.017529
-0.0170959
-0.0160109
-0.0142763
-0.011907
-0.00892935
-0.00537945
-0.001302
0.00325086
0.00822042
0.0135424
0.0191475
0.0249625
0.030911
0.00231602
0.0014527
2.13927e-06
-0.00189022
-0.0040367
-0.0062542
-0.00838157
-0.0102821
-0.0118437
-0.0129776
-0.0136173
-0.0137159
-0.0132439
-0.0121875
-0.0105462
-0.00833187
-0.00556648
-0.00228145
0.00148368
0.00568225
0.0102613
0.0151626
0.0203229
0.0256755
0.0311504
0.00496733
0.00356179
0.00187103
-5.07986e-05
-0.00212
-0.0041948
-0.00614557
-0.00786263
-0.00925374
-0.0102443
-0.010777
-0.0108109
-0.01032
-0.00929153
-0.00772489
-0.00563025
-0.00302736
5.54718e-05
0.00358235
0.00751065
0.0117918
0.0163722
0.0211937
0.0261943
0.0313092
0.00814969
0.006073
0.00401453
0.001936
-0.00018221
-0.00223214
-0.00411064
-0.00573282
-0.00702571
-0.00792893
-0.00839552
-0.0083916
-0.00789564
-0.00689751
-0.00539752
-0.0034055
-0.000939858
0.00197323
0.00530063
0.00900299
0.0130354
0.0173481
0.021887
0.0265947
0.0314106
0.0115742
0.00877194
0.00626967
0.00394599
0.00168563
-0.000430033
-0.00231936
-0.00391927
-0.00517452
-0.00603836
-0.00647417
-0.0064557
-0.0059667
-0.00500044
-0.00355907
-0.00165296
0.000699928
0.00347475
0.00664033
0.0101598
0.0139912
0.0180879
0.0223994
0.0268717
0.0314481
0.0150204
0.01148
0.00849141
0.00586168
0.00339042
0.00113914
-0.000827257
-0.00246421
-0.00373218
-0.00459693
-0.00503178
-0.00501813
-0.00454538
-0.00361073
-0.0022188
-0.000381218
0.00188381
0.004552
0.00759345
0.0109731
0.0146511
0.0185835
0.0227224
0.0270167
0.0314128
0.018317
0.0140473
0.0105527
0.00757872
0.00484976
0.002413
0.000320706
-0.001398
-0.00271715
-0.00361372
-0.00407028
-0.0040756
-0.00362478
-0.0027192
-0.00136637
0.000420312
0.00262184
0.00521394
0.00816733
0.0114481
0.0150181
0.0188351
0.0228534
0.0270242
0.031296
0.0213299
0.0163491
0.0123424
0.00900169
0.00598452
0.00332804
0.00107524
-0.000757493
-0.00215577
-0.00310646
-0.00360052
-0.00363368
-0.00320657
-0.00232484
-0.000999108
0.000755117
0.00291761
0.00546361
0.008364
0.0115855
0.015091
0.0188396
0.0227872
0.0268865
0.0310878
0.0239523
0.0182805
0.0137629
0.0100431
0.00671868
0.00381986
0.001383
-0.000585949
-0.00208244
-0.00310197
-0.00364306
-0.00370784
-0.00330227
-0.00243621
-0.00112349
0.000618042
0.00276665
0.0052967
0.00817882
0.0113799
0.0148635
0.0185894
0.0225147
0.0265931
0.030776
0.026096
0.0197514
0.0147271
0.0106226
0.00697972
0.00382454
0.00118872
-0.000930378
-0.00253662
-0.00363305
-0.00422493
-0.00432034
-0.00393022
-0.00306856
-0.00175244
-2.1599e-06
0.00215877
0.00470361
0.00760235
0.0108218
0.0143254
0.0180738
0.0220243
0.0261314
0.0303472
0.0276852
0.0206821
0.015156
0.0106647
0.00669783
0.00327865
0.000435748
-0.00184073
-0.00356188
-0.00473739
-0.00537863
-0.00549913
-0.00511457
-0.0042429
-0.00290447
-0.0011221
0.00107876
0.00367001
0.00662077
0.00989734
0.0134631
0.0172786
0.0213015
0.0254864
0.0297858
0.0286513
0.0209995
0.0149759
0.0100979
0.00580492
0.00211874
-0.000934112
-0.00336971
-0.0052055
-0.00645714
-0.00714156
-0.00727739
-0.00688479
-0.00598556
-0.00460327
-0.00276339
-0.000493371
0.00217713
0.00521616
0.00858927
0.0122594
0.0161869
0.0203292
0.0246411
0.0290746
0.0289298
0.0206346
0.0141161
0.00885219
0.00423346
0.000280746
-0.00298079
-0.00557271
-0.00751824
-0.00883848
-0.00955558
-0.00969296
-0.00927511
-0.00832761
-0.00687725
-0.00495214
-0.0025819
0.000202153
0.00336679
0.00687665
0.0106941
0.0147788
0.019088
0.0235761
0.0281948
0.0284577
0.0195193
0.0125066
0.00685804
0.00191544
-0.00230078
-0.00576636
-0.00850797
-0.0105542
-0.0119314
-0.0126666
-0.0127879
-0.0123241
-0.0113045
-0.00975898
-0.00771853
-0.00521497
-0.0022814
0.00104754
0.00473544
0.00874377
0.0130317
0.0175558
0.02227
0.0271254
0.0271708
0.0175853
0.0100771
0.00404478
-0.00121876
-0.0056934
-0.00935556
-0.0122368
-0.0143711
-0.0157896
-0.0165245
-0.0166084
-0.0160743
-0.0149553
-0.0132848
-0.0110963
-0.00842411
-0.0053032
-0.00176969
0.00213879
0.00638281
0.0109208
0.0157086
0.0206996
0.025844
0.0250028
0.0147621
0.00675487
0.000339376
-0.00524143
-0.00996763
-0.0138163
-0.0168241
-0.01903
-0.0204705
-0.0211827
-0.021204
-0.0205717
-0.0193228
-0.0174942
-0.0151223
-0.0122437
-0.00889555
-0.00511549
-0.000942394
0.00358331
0.00841921
0.0135206
0.0188399
0.0243266
0.0218833
0.0109755
0.00246384
-0.00433475
-0.0102285
-0.0151977
-0.0192204
-0.0223383
-0.0245959
-0.0260352
-0.0266983
-0.0266278
-0.0258655
-0.0244526
-0.0224295
-0.0198357
-0.0167104
-0.0130929
-0.00902231
-0.00453894
0.0003158
0.00549873
0.0109644
0.0166647
0.0225482
0.0177372
0.00614657
-0.00287689
-0.0100589
-0.0162605
-0.0214626
-0.0256441
-0.0288524
-0.0311379
-0.0325485
-0.0331319
-0.0329361
-0.0320078
-0.0303927
-0.028135
-0.0252777
-0.0218625
-0.0179308
-0.0135237
-0.00868266
-0.00345002
0.00213029
0.00801224
0.0141471
0.020483
0.0124832
0.000190464
-0.00935417
-0.0169203
-0.0234238
-0.0288465
-0.0331688
-0.036444
-0.0387294
-0.0400792
-0.0405473
-0.0401878
-0.0390529
-0.037193
-0.0346567
-0.0314903
-0.0277387
-0.0234455
-0.0186535
-0.0134054
-0.00774445
-0.00171512
0.00463615
0.0112603
0.0181051
0.00603309
-0.00698499
-0.0170621
-0.0250132
-0.0318115
-0.0374403
-0.0418817
-0.0451962
-0.0474484
-0.0486997
-0.0490115
-0.0484444
-0.0470567
-0.0449044
-0.0420406
-0.0385157
-0.0343777
-0.0296724
-0.0244446
-0.018738
-0.0125967
-0.00606542
0.000809262
0.00797829
0.0153893
-0.00170955
-0.0154805
-0.0261034
-0.0344404
-0.0415251
-0.0473423
-0.051877
-0.0551976
-0.0573775
-0.0584866
-0.0585943
-0.0577689
-0.0560761
-0.0535778
-0.0503325
-0.0463948
-0.0418162
-0.036645
-0.0309276
-0.024709
-0.0180335
-0.0109461
-0.00349306
0.00427706
0.0123123
-0.0108505
-0.0254067
-0.036591
-0.0453149
-0.0526752
-0.0586595
-0.0632564
-0.0665437
-0.0686049
-0.0695198
-0.0693677
-0.0682259
-0.0661681
-0.0632634
-0.0595761
-0.0551659
-0.0500878
-0.0443929
-0.0381293
-0.0313427
-0.0240777
-0.0163789
-0.00829172
0.000136134
0.00885378
-0.0215066
-0.0368863
-0.0486503
-0.0577613
-0.0653839
-0.0715091
-0.0761303
-0.0793366
-0.0812237
-0.0818833
-0.081406
-0.0798799
-0.0773883
-0.0740085
-0.0698117
-0.0648629
-0.0592212
-0.0529405
-0.0460705
-0.0386575
-0.030746
-0.0223795
-0.0136022
-0.00445993
0.0049981
-0.0338074
-0.0500561
-0.0624212
-0.0719191
-0.0797869
-0.0860203
-0.0906193
-0.0936867
-0.0953329
-0.0956639
-0.0947842
-0.0927946
-0.0897897
-0.0858564
-0.0810739
-0.0755131
-0.0692376
-0.0623042
-0.054764
-0.0466637
-0.038047
-0.0289559
-0.0194323
-0.00951953
0.00073598
-0.0478978
-0.0650701
-0.0780613
-0.0879446
-0.0960355
-0.102336
-0.106855
-0.109713
-0.111037
-0.110951
-0.109578
-0.107031
-0.103421
-0.098844
-0.0933893
-0.0871346
-0.0801482
-0.0724897
-0.0642117
-0.0553607
-0.0459787
-0.0361056
-0.0257801
-0.0150418
-0.00393338
-0.0639411
-0.0821034
-0.0957503
-0.106016
-0.114301
-0.120616
-0.124984
-0.127543
-0.128446
-0.127838
-0.12586
-0.122647
-0.118323
-0.112999
-0.106774
-0.0997335
-0.0919512
-0.0834895
-0.0744019
-0.0647339
-0.0545255
-0.0438131
-0.0326312
-0.0210144
-0.0090001
-0.0821239
-0.101357
-0.115695
-0.126335
-0.134776
-0.14104
-0.145164
-0.147317
-0.147677
-0.146416
-0.143701
-0.139691
-0.134526
-0.128336
-0.121229
-0.1133
-0.104628
-0.0952788
-0.0853053
-0.0747519
-0.0636553
-0.0520471
-0.0399561
-0.0274107
-0.0144412
-0.102661
-0.123065
-0.138135
-0.14914
-0.157685
-0.16381
-0.167575
-0.169183
-0.168849
-0.166777
-0.163167
-0.158203
-0.15205
-0.144854
-0.136737
-0.127805
-0.11814
-0.107812
-0.0968722
-0.0853629
-0.073316
-0.0607569
-0.0477072
-0.0341872
-0.0202184
-0.125805
-0.147504
-0.163355
-0.174705
-0.183284
-0.189157
-0.192415
-0.193305
-0.192087
-0.18901
-0.184312
-0.178208
-0.170892
-0.16253
-0.153259
-0.143194
-0.132424
-0.121018
-0.109028
-0.0964909
-0.0834325
-0.0698703
-0.0558166
-0.0412814
-0.0262755
-0.151853
-0.175003
-0.191693
-0.203358
-0.211876
-0.217345
-0.219903
-0.219855
-0.217519
-0.213198
-0.207177
-0.199712
-0.191029
-0.181314
-0.170725
-0.159383
-0.147384
-0.134796
-0.121669
-0.108032
-0.0939034
-0.07929
-0.0641927
-0.0486093
-0.032537
-0.181168
-0.205965
-0.223559
-0.235491
-0.243815
-0.248681
-0.250288
-0.249019
-0.245269
-0.239409
-0.231783
-0.222693
-0.212402
-0.201123
-0.189029
-0.176253
-0.162892
-0.149013
-0.134659
-0.119852
-0.104598
-0.0888919
-0.0727196
-0.0560639
-0.0389065
-0.214193
-0.240883
-0.259457
-0.271579
-0.279523
-0.283516
-0.283843
-0.280993
-0.275457
-0.267695
-0.25812
-0.247093
-0.234915
-0.22183
-0.208025
-0.193642
-0.178778
-0.163495
-0.147827
-0.131784
-0.115356
-0.0985233
-0.0812548
-0.063515
-0.0452667
-0.251483
-0.280379
-0.300014
-0.312203
-0.319506
-0.32226
-0.320874
-0.315976
-0.308188
-0.298076
-0.286141
-0.272808
-0.258422
-0.243257
-0.227514
-0.211339
-0.194826
-0.178027
-0.160961
-0.143622
-0.125983
-0.108003
-0.0896306
-0.0708092
-0.0514799
-0.293743
-0.325245
-0.346022
-0.358086
-0.364373
-0.365385
-0.361711
-0.354166
-0.343538
-0.330528
-0.31574
-0.299669
-0.282711
-0.265163
-0.247238
-0.22908
-0.21077
-0.192347
-0.17381
-0.155129
-0.136255
-0.117122
-0.0976552
-0.077773
-0.0573915
-0.341892
-0.37651
-0.398494
-0.410128
-0.414857
-0.413438
-0.40671
-0.395743
-0.381538
-0.364962
-0.346735
-0.327432
-0.307492
-0.287234
-0.266871
-0.246536
-0.226291
-0.206149
-0.186082
-0.166031
-0.145918
-0.125648
-0.105117
-0.0842165
-0.0628338
-0.397145
-0.43553
-0.458745
-0.469461
-0.471846
-0.467036
-0.456232
-0.440844
-0.422144
-0.401193
-0.378842
-0.355746
-0.332379
-0.309066
-0.286009
-0.263314
-0.241012
-0.219078
-0.197447
-0.176024
-0.154694
-0.133329
-0.111791
-0.0899407
-0.0676334
-0.461151
-0.504135
-0.528505
-0.537522
-0.536404
-0.526865
-0.510619
-0.489525
-0.465191
-0.438901
-0.411642
-0.384133
-0.356867
-0.330155
-0.304162
-0.27895
-0.2545
-0.230736
-0.207543
-0.184781
-0.162291
-0.139905
-0.117448
-0.094746
-0.0716203
-0.536203
-0.584837
-0.610074
-0.61613
-0.609789
-0.593648
-0.570137
-0.541698
-0.510338
-0.477581
-0.444535
-0.411955
-0.380318
-0.349883
-0.320752
-0.292913
-0.266274
-0.24069
-0.215986
-0.191962
-0.16841
-0.145116
-0.121866
-0.0984445
-0.0746393
-0.625588
-0.681162
-0.706548
-0.707581
-0.693454
-0.668083
-0.634886
-0.597033
-0.556976
-0.516468
-0.476689
-0.438377
-0.401931
-0.367512
-0.33511
-0.304605
-0.275808
-0.248484
-0.222379
-0.197227
-0.172763
-0.148721
-0.124842
-0.100873
-0.0765629
-0.73419
-0.79817
-0.822118
-0.814743
-0.788983
-0.75071
-0.704644
-0.654811
-0.604112
-0.55445
-0.506984
-0.462333
-0.420735
-0.382175
-0.34648
-0.313379
-0.282551
-0.253652
-0.226336
-0.200258
-0.175089
-0.150509
-0.126213
-0.101907
-0.0773053
-0.869579
-0.943282
-0.962465
-0.941085
-0.897928
-0.84166
-0.778615
-0.713722
-0.650211
-0.589966
-0.533946
-0.482498
-0.435573
-0.39289
-0.354039
-0.318553
-0.285948
-0.255748
-0.227499
-0.200773
-0.175172
-0.15032
-0.125866
-0.101478
-0.0768354
-1.04408
-1.1276
-1.13522
-1.09058
-1.02144
-0.940232
-0.855058
-0.771569
-0.693004
-0.620889
-0.555695
-0.497271
-0.44512
-0.398578
-0.356927
-0.319451
-0.285474
-0.25437
-0.225569
-0.198557
-0.172863
-0.148062
-0.123758
-0.0995833
-0.0751881
-1.27895
-1.368
-1.35029
-1.26714
-1.15945
-1.04412
-0.930693
-0.824883
-0.729259
-0.644414
-0.569906
-0.504786
-0.447911
-0.398114
-0.354291
-0.315439
-0.280668
-0.249193
-0.22033
-0.193476
-0.1681
-0.143726
-0.119924
-0.0962964
-0.0724709
-1.61291
-1.69018
-1.61933
-1.4729
-1.30891
-1.14803
-0.99975
-0.868348
-0.754482
-0.65694
-0.573789
-0.502937
-0.442391
-0.39037
-0.345332
-0.305967
-0.271167
-0.239998
-0.211667
-0.185499
-0.160911
-0.13739
-0.114481
-0.0917677
-0.0688625
-2.11671
-2.13163
-1.95349
-1.7052
-1.46123
-1.24197
-1.05308
-0.894449
-0.762878
-0.654174
-0.564261
-0.489559
-0.427074
-0.374352
-0.329412
-0.29065
-0.256768
-0.226709
-0.1996
-0.174714
-0.151433
-0.129229
-0.107632
-0.086221
-0.0646059
-2.91883
-2.74199
-2.35914
-1.95416
-1.60135
-1.31131
-1.07886
-0.894528
-0.748473
-0.63218
-0.538838
-0.463171
-0.401147
-0.349691
-0.306444
-0.269582
-0.237679
-0.209603
-0.184442
-0.16145
-0.140005
-0.119578
-0.0997067
-0.0799784
-0.0600127
-4.30829
-3.58025
-2.81236
-2.18395
-1.69676
-1.33087
-1.05968
-0.857425
-0.704482
-0.587035
-0.4954
-0.422753
-0.364253
-0.316412
-0.276675
-0.243131
-0.214325
-0.189128
-0.166645
-0.146152
-0.127053
-0.108845
-0.0910903
-0.073402
-0.055423
-7.0462
-4.67305
-3.13913
-2.23595
-1.63553
-1.22712
-0.948421
-0.752891
-0.61107
-0.50527
-0.424418
-0.361293
-0.311048
-0.270335
-0.236769
-0.208601
-0.18452
-0.163514
-0.144789
-0.127704
-0.111732
-0.0964302
-0.0814127
-0.0663378
-0.0508914
-11.6814
-5.75834
-2.98805
-1.87144
-1.28235
-0.928276
-0.706881
-0.559709
-0.45564
-0.37876
-0.320187
-0.274484
-0.238112
-0.208652
-0.184379
-0.164018
-0.146598
-0.131366
-0.117719
-0.105167
-0.093302
-0.0817776
-0.0702905
-0.0585688
-0.0463617
)
;

boundaryField
{
    movingWall
    {
        type            zeroGradient;
    }
    fixedWalls
    {
        type            zeroGradient;
    }
    frontAndBack
    {
        type            empty;
    }
    procBoundary0to1
    {
        type            processor;
        value           nonuniform List<scalar> 
50
(
0.0372131
0.036914
0.0366752
0.0364713
0.0362722
0.0360696
0.0358545
0.0356151
0.0353389
0.0350124
0.0346211
0.0341492
0.0335793
0.0328929
0.03207
0.031089
0.0299271
0.0285604
0.0269644
0.0251143
0.0229859
0.0205564
0.0178059
0.0147183
0.0112834
0.00749844
0.00337036
-0.00108204
-0.00582603
-0.0108129
-0.0159763
-0.0212314
-0.0264747
-0.0315853
-0.0364279
-0.0408578
-0.0447274
-0.0478959
-0.0502402
-0.0516673
-0.0521274
-0.0516261
-0.050233
-0.0480869
-0.0453933
-0.0424132
-0.0394471
-0.0368141
-0.0347741
-0.0334295
)
;
    }
}


// ************************************************************************* //
