/*--------------------------------*- C++ -*----------------------------------*\
| =========                 |                                                 |
| \\      /  F ield         | OpenFOAM: The Open Source CFD Toolbox           |
|  \\    /   O peration     | Version:  v2012                                 |
|   \\  /    A nd           | Website:  www.openfoam.com                      |
|    \\/     M anipulation  |                                                 |
\*---------------------------------------------------------------------------*/
FoamFile
{
    version     2.0;
    format      ascii;
    class       surfaceScalarField;
    location    "0.3";
    object      phi;
}
// * * * * * * * * * * * * * * * * * * * * * * * * * * * * * * * * * * * * * //

dimensions      [0 3 -1 0 0 0 0];
oriented        oriented;


internalField   nonuniform List<scalar> 
2425
(
1.17878e-09
-1.1869e-09
2.41846e-09
-1.23969e-09
2.51831e-09
-9.9865e-11
1.0401e-09
1.47821e-09
-2.09662e-09
3.13672e-09
-6.80388e-09
4.70726e-09
-1.29114e-08
6.10748e-09
-2.02113e-08
7.29994e-09
-2.84817e-08
8.27044e-09
-3.74987e-08
9.01696e-09
-4.70428e-08
9.54419e-09
-5.69035e-08
9.86071e-09
-6.68809e-08
9.97738e-09
-7.67873e-08
9.90647e-09
-8.64484e-08
9.66107e-09
-9.57031e-08
9.25471e-09
-1.04404e-07
8.70124e-09
-1.12419e-07
8.01464e-09
-1.19628e-07
7.20897e-09
-1.25926e-07
6.29843e-09
-1.31224e-07
5.29734e-09
-1.35444e-07
4.22018e-09
-1.38525e-07
3.0817e-09
-1.40422e-07
1.89698e-09
6.81478e-10
1.25005e-09
-2.43696e-09
1.44879e-09
-1.43844e-09
-1.16038e-09
2.5093e-09
-7.38495e-09
7.70277e-09
-1.74752e-08
1.3227e-08
-3.1323e-08
1.8555e-08
-4.86027e-08
2.33872e-08
-6.88646e-08
2.75619e-08
-9.15927e-08
3.09985e-08
-1.16241e-07
3.36655e-08
-1.42258e-07
3.55611e-08
-1.691e-07
3.67027e-08
-1.96243e-07
3.71202e-08
-2.23187e-07
3.68513e-08
-2.49465e-07
3.59391e-08
-2.74641e-07
3.44303e-08
-2.98314e-07
3.23738e-08
-3.20119e-07
2.98201e-08
-3.39731e-07
2.68211e-08
-3.56862e-07
2.34293e-08
-3.71263e-07
1.96985e-08
-3.82726e-07
1.56834e-08
-3.91084e-07
1.14396e-08
-3.96211e-07
7.02426e-09
2.49588e-09
1.54527e-10
-2.59149e-09
-2.40535e-09
1.12142e-09
-9.35398e-09
9.45791e-09
-2.15291e-08
1.98778e-08
-3.91968e-08
3.08947e-08
-6.22106e-08
4.15689e-08
-9.01412e-08
5.13178e-08
-1.22377e-07
5.97972e-08
-1.58194e-07
6.68164e-08
-1.96813e-07
7.22841e-08
-2.37427e-07
7.6175e-08
-2.79232e-07
7.85076e-08
-3.21442e-07
7.93308e-08
-3.63305e-07
7.87136e-08
-4.04105e-07
7.67395e-08
-4.43176e-07
7.35017e-08
-4.79903e-07
6.91003e-08
-5.13723e-07
6.36403e-08
-5.44132e-07
5.72304e-08
-5.70685e-07
4.99825e-08
-5.92998e-07
4.20109e-08
-6.10747e-07
3.34328e-08
-6.23675e-07
2.43678e-08
-6.3159e-07
1.49386e-08
5.27089e-09
-1.37791e-09
-1.2136e-09
-7.52667e-09
7.27017e-09
-1.97146e-08
2.16458e-08
-3.85829e-08
3.87461e-08
-6.4277e-08
5.65888e-08
-9.65486e-08
7.38405e-08
-1.34855e-07
8.96242e-08
-1.78447e-07
1.03389e-07
-2.2644e-07
1.14809e-07
-2.77868e-07
1.23712e-07
-3.31726e-07
1.30033e-07
-3.87003e-07
1.33784e-07
-4.42702e-07
1.3503e-07
-4.9786e-07
1.33872e-07
-5.51562e-07
1.30441e-07
-6.02946e-07
1.24886e-07
-6.51217e-07
1.17371e-07
-6.95645e-07
1.08068e-07
-7.35574e-07
9.71597e-08
-7.70425e-07
8.48336e-08
-7.99697e-07
7.12831e-08
-8.22971e-07
5.67066e-08
-8.39911e-07
4.13075e-08
-8.50266e-07
2.52944e-08
8.88109e-09
-3.02104e-09
1.80743e-09
-1.31138e-08
1.73629e-08
-3.09901e-08
3.95221e-08
-5.6959e-08
6.4715e-08
-9.09438e-08
9.05736e-08
-1.32532e-07
1.15428e-07
-1.81038e-07
1.3813e-07
-2.35574e-07
1.57925e-07
-2.95108e-07
1.74343e-07
-3.58518e-07
1.87122e-07
-4.24635e-07
1.9615e-07
-4.92276e-07
2.01425e-07
-5.60271e-07
2.03025e-07
-6.27486e-07
2.01087e-07
-6.92836e-07
1.95791e-07
-7.553e-07
1.8735e-07
-8.13929e-07
1.76e-07
-8.67855e-07
1.61993e-07
-9.16292e-07
1.45598e-07
-9.5855e-07
1.27091e-07
-9.94027e-07
1.06761e-07
-1.02222e-06
8.49029e-08
-1.04274e-06
6.1821e-08
-1.05527e-06
3.78269e-08
1.32402e-08
-4.64128e-09
6.4487e-09
-1.87554e-08
3.1477e-08
-4.24746e-08
6.32413e-08
-7.57087e-08
9.7949e-08
-1.18094e-07
1.32959e-07
-1.69e-07
1.66335e-07
-2.27569e-07
1.96699e-07
-2.92757e-07
2.23113e-07
-3.63386e-07
2.44973e-07
-4.3819e-07
2.61926e-07
-5.15852e-07
2.73813e-07
-5.95044e-07
2.80617e-07
-6.74448e-07
2.82429e-07
-7.52785e-07
2.79424e-07
-8.2883e-07
2.71836e-07
-9.01426e-07
2.59947e-07
-9.69498e-07
2.44072e-07
-1.03206e-06
2.24554e-07
-1.08822e-06
2.01757e-07
-1.13719e-06
1.7606e-07
-1.17828e-06
1.47858e-07
-1.21094e-06
1.17557e-07
-1.23469e-06
8.55746e-08
-1.2492e-06
5.23412e-08
1.82966e-08
-6.18683e-09
1.26355e-08
-2.42567e-08
4.95467e-08
-5.37983e-08
9.27829e-08
-9.43027e-08
1.38453e-07
-1.45083e-07
1.83739e-07
-2.05259e-07
2.2651e-07
-2.73766e-07
2.65206e-07
-3.49387e-07
2.98735e-07
-4.30792e-07
3.26377e-07
-5.16568e-07
3.47702e-07
-6.05262e-07
3.62508e-07
-6.95412e-07
3.70767e-07
-7.85572e-07
3.72589e-07
-8.74336e-07
3.68188e-07
-9.6036e-07
3.57859e-07
-1.04237e-06
3.41959e-07
-1.11919e-06
3.20889e-07
-1.18973e-06
2.95092e-07
-1.25301e-06
2.65034e-07
-1.30815e-06
2.31209e-07
-1.35442e-06
1.94127e-07
-1.39118e-06
1.54317e-07
-1.41793e-06
1.12322e-07
-1.43429e-06
6.87018e-08
2.40287e-08
-7.64565e-09
2.02811e-08
-2.95451e-08
7.14461e-08
-6.47987e-08
1.28036e-07
-1.12487e-07
1.86142e-07
-1.71588e-07
2.4284e-07
-2.40945e-07
2.95867e-07
-3.19269e-07
3.43529e-07
-4.05151e-07
3.84617e-07
-4.97095e-07
4.1832e-07
-5.93539e-07
4.44147e-07
-6.92897e-07
4.61865e-07
-7.93578e-07
4.71447e-07
-8.94017e-07
4.73028e-07
-9.92697e-07
4.66869e-07
-1.08817e-06
4.5333e-07
-1.17906e-06
4.32851e-07
-1.2641e-06
4.0593e-07
-1.34212e-06
3.73111e-07
-1.41206e-06
3.34977e-07
-1.47299e-06
2.9214e-07
-1.5241e-06
2.45237e-07
-1.56471e-06
1.94927e-07
-1.59428e-06
1.4189e-07
-1.6124e-06
8.68233e-08
3.04417e-08
-9.02356e-09
2.93047e-08
-3.46119e-08
9.70345e-08
-7.54327e-08
1.68857e-07
-1.30177e-07
2.40887e-07
-1.97487e-07
3.10149e-07
-2.75919e-07
3.743e-07
-3.63942e-07
4.31553e-07
-4.59944e-07
4.80619e-07
-5.62249e-07
5.20624e-07
-6.69141e-07
5.5104e-07
-7.78896e-07
5.7162e-07
-8.89798e-07
5.8235e-07
-1.00017e-06
5.83401e-07
-1.10839e-06
5.75091e-07
-1.21292e-06
5.57858e-07
-1.3123e-06
5.32229e-07
-1.40517e-06
4.98804e-07
-1.4903e-06
4.58243e-07
-1.56657e-06
4.11247e-07
-1.63299e-06
3.58558e-07
-1.6887e-06
3.00946e-07
-1.73298e-06
2.39207e-07
-1.76525e-06
1.74164e-07
-1.78509e-06
1.06662e-07
3.75639e-08
-1.03335e-08
3.96382e-08
-3.94801e-08
1.26181e-07
-8.57221e-08
2.15099e-07
-1.47386e-07
3.02551e-07
-2.22783e-07
3.85546e-07
-3.10181e-07
4.61698e-07
-4.07798e-07
5.29169e-07
-5.13802e-07
5.86624e-07
-6.26332e-07
6.33154e-07
-7.4351e-07
6.68218e-07
-8.63468e-07
6.91578e-07
-9.84369e-07
7.0325e-07
-1.10442e-06
7.03455e-07
-1.22191e-06
6.92582e-07
-1.33521e-06
6.71153e-07
-1.44278e-06
6.39796e-07
-1.5432e-06
5.99223e-07
-1.63517e-06
5.50213e-07
-1.71752e-06
4.93597e-07
-1.78921e-06
4.30249e-07
-1.84934e-06
3.61081e-07
-1.89717e-06
2.87033e-07
-1.93208e-06
2.09076e-07
-1.95363e-06
1.28206e-07
4.54439e-08
-1.15906e-08
5.12287e-08
-4.41868e-08
1.58777e-07
-9.57228e-08
2.66635e-07
-1.64182e-07
3.7101e-07
-2.47555e-07
4.68919e-07
-3.4382e-07
5.57963e-07
-4.50937e-07
6.36286e-07
-5.6685e-07
7.02537e-07
-6.89501e-07
7.55805e-07
-8.16843e-07
7.9556e-07
-9.46863e-07
8.21598e-07
-1.07759e-06
8.33982e-07
-1.20714e-06
8.33004e-07
-1.3337e-06
8.19136e-07
-1.45554e-06
7.92999e-07
-1.57108e-06
7.55332e-07
-1.67883e-06
7.06969e-07
-1.77743e-06
6.48815e-07
-1.86567e-06
5.8184e-07
-1.94248e-06
5.07057e-07
-2.00692e-06
4.25522e-07
-2.05821e-06
3.38327e-07
-2.09573e-06
2.46593e-07
-2.119e-06
1.51473e-07
5.41474e-08
-1.281e-08
6.40387e-08
-4.87743e-08
1.94741e-07
-1.05506e-07
3.23366e-07
-1.80661e-07
4.46166e-07
-2.71921e-07
5.60178e-07
-3.76972e-07
6.63015e-07
-4.93516e-07
7.52829e-07
-6.19263e-07
8.28284e-07
-7.51954e-07
8.88496e-07
-8.89367e-07
9.32973e-07
-1.02934e-06
9.61568e-07
-1.16977e-06
9.74418e-07
-1.30867e-06
9.71901e-07
-1.44413e-06
9.54591e-07
-1.57435e-06
9.23223e-07
-1.69768e-06
8.7866e-07
-1.81257e-06
8.21865e-07
-1.91764e-06
7.53885e-07
-2.01163e-06
6.7583e-07
-2.09344e-06
5.8886e-07
-2.1621e-06
4.94182e-07
-2.21681e-06
3.93038e-07
-2.25692e-06
2.86707e-07
-2.28195e-06
1.76499e-07
6.3755e-08
-1.40058e-08
7.80445e-08
-5.32852e-08
2.34021e-07
-1.15146e-07
3.85227e-07
-1.96931e-07
5.27951e-07
-2.96015e-07
6.59261e-07
-4.09797e-07
7.76797e-07
-5.35713e-07
8.78745e-07
-6.71239e-07
9.63811e-07
-8.13907e-07
1.03116e-06
-9.61314e-07
1.08038e-06
-1.11114e-06
1.1114e-06
-1.26117e-06
1.12445e-06
-1.40929e-06
1.12002e-06
-1.5535e-06
1.0988e-06
-1.69195e-06
1.06167e-06
-1.82291e-06
1.00962e-06
-1.94481e-06
9.4376e-07
-2.0562e-06
8.65279e-07
-2.15581e-06
7.7544e-07
-2.24251e-06
6.75557e-07
-2.31532e-06
5.66988e-07
-2.37341e-06
4.51133e-07
-2.41613e-06
3.29425e-07
-2.44296e-06
2.03332e-07
7.4359e-08
-1.51909e-08
9.32354e-08
-5.776e-08
2.7659e-07
-1.24718e-07
4.52185e-07
-2.131e-07
6.16333e-07
-3.19976e-07
7.66137e-07
-4.42457e-07
8.99279e-07
-5.77713e-07
1.014e-06
-7.22977e-07
1.10907e-06
-8.75569e-07
1.18375e-06
-1.0329e-06
1.23771e-06
-1.1925e-06
1.271e-06
-1.35202e-06
1.28396e-06
-1.50923e-06
1.27723e-06
-1.66206e-06
1.25163e-06
-1.80858e-06
1.20819e-06
-1.94702e-06
1.14806e-06
-2.07575e-06
1.0725e-06
-2.19333e-06
9.82852e-07
-2.29843e-06
8.80546e-07
-2.38992e-06
7.67048e-07
-2.46681e-06
6.43875e-07
-2.52826e-06
5.12581e-07
-2.57359e-06
3.74757e-07
-2.60229e-06
2.32029e-07
8.60603e-08
-1.63767e-08
1.09612e-07
-6.2236e-08
3.22449e-07
-1.34292e-07
5.2424e-07
-2.29271e-07
7.11313e-07
-3.43939e-07
8.80804e-07
-4.75114e-07
1.03045e-06
-6.19693e-07
1.15858e-06
-7.74666e-07
1.26405e-06
-9.37132e-07
1.34622e-06
-1.10432e-06
1.4049e-06
-1.27359e-06
1.44027e-06
-1.44247e-06
1.45284e-06
-1.60863e-06
1.44339e-06
-1.76992e-06
1.41292e-06
-1.92434e-06
1.36261e-06
-2.07008e-06
1.2938e-06
-2.20548e-06
1.2079e-06
-2.32906e-06
1.10644e-06
-2.43952e-06
9.91e-07
-2.53569e-06
8.63215e-07
-2.61657e-06
7.24758e-07
-2.68133e-06
5.77342e-07
-2.72928e-06
4.2271e-07
-2.7599e-06
2.62646e-07
9.89651e-08
-1.75735e-08
1.27186e-07
-6.67472e-08
3.71622e-07
-1.43932e-07
6.01425e-07
-2.45542e-07
8.12922e-07
-3.68028e-07
1.00329e-06
-5.07914e-07
1.17034e-06
-6.61817e-07
1.31248e-06
-8.26473e-07
1.4287e-06
-9.98762e-07
1.51851e-06
-1.17572e-06
1.58186e-06
-1.35455e-06
1.6191e-06
-1.53265e-06
1.63094e-06
-1.70758e-06
1.61832e-06
-1.87712e-06
1.58246e-06
-2.03923e-06
1.52472e-06
-2.19204e-06
1.44661e-06
-2.33389e-06
1.34975e-06
-2.46328e-06
1.23583e-06
-2.57891e-06
1.10662e-06
-2.6796e-06
9.63908e-07
-2.76437e-06
8.09531e-07
-2.83238e-06
6.45355e-07
-2.88295e-06
4.73278e-07
-2.91554e-06
2.9523e-07
1.1318e-07
-1.87904e-08
1.45976e-07
-7.13248e-08
4.24157e-07
-1.53699e-07
6.83799e-07
-2.62001e-07
9.21224e-07
-3.92361e-07
1.13365e-06
-5.40993e-07
1.31897e-06
-7.04227e-07
1.47572e-06
-8.78541e-07
1.60302e-06
-1.06059e-06
1.70056e-06
-1.2472e-06
1.76848e-06
-1.43544e-06
1.80734e-06
-1.62256e-06
1.81806e-06
-1.80604e-06
1.80181e-06
-1.98359e-06
1.76e-06
-2.1531e-06
1.69423e-06
-2.3127e-06
1.60621e-06
-2.46072e-06
1.49777e-06
-2.59566e-06
1.37077e-06
-2.71621e-06
1.22717e-06
-2.82123e-06
1.06893e-06
-2.90974e-06
8.98038e-07
-2.98091e-06
7.16523e-07
-3.03405e-06
5.26425e-07
-3.06864e-06
3.29818e-07
1.2881e-07
-2.0036e-08
1.66012e-07
-7.59973e-08
4.80118e-07
-1.63647e-07
7.71449e-07
-2.7873e-07
1.03631e-06
-4.17041e-07
1.27196e-06
-5.7447e-07
1.4764e-06
-7.47048e-07
1.64829e-06
-9.30986e-07
1.78696e-06
-1.1227e-06
1.89227e-06
-1.31883e-06
1.96461e-06
-1.51628e-06
2.00479e-06
-1.71217e-06
2.01395e-06
-1.9039e-06
1.99354e-06
-2.08911e-06
1.94521e-06
-2.26568e-06
1.8708e-06
-2.43171e-06
1.77225e-06
-2.58553e-06
1.65159e-06
-2.72567e-06
1.51091e-06
-2.85083e-06
1.35233e-06
-2.95991e-06
1.178e-06
-3.05194e-06
9.9007e-07
-3.12612e-06
7.90702e-07
-3.18178e-06
5.82083e-07
-3.21838e-06
3.66419e-07
1.45949e-07
-2.1318e-08
1.8733e-07
-8.07922e-08
5.39592e-07
-1.73828e-07
8.64485e-07
-2.95808e-07
1.15829e-06
-4.42167e-07
1.41832e-06
-6.08453e-07
1.64269e-06
-7.90385e-07
1.83023e-06
-9.83892e-07
1.98046e-06
-1.18515e-06
2.09353e-06
-1.39061e-06
2.17007e-06
-1.59699e-06
2.21117e-06
-1.80132e-06
2.21828e-06
-2.00092e-06
2.19313e-06
-2.19337e-06
2.13766e-06
-2.37653e-06
2.05396e-06
-2.54852e-06
1.94423e-06
-2.70767e-06
1.81075e-06
-2.85256e-06
1.6558e-06
-2.98193e-06
1.4817e-06
-3.09471e-06
1.29078e-06
-3.18998e-06
1.08534e-06
-3.26696e-06
8.67684e-07
-3.32501e-06
6.40132e-07
-3.3636e-06
4.05011e-07
1.64674e-07
-2.26446e-08
2.09974e-07
-8.57364e-08
6.02684e-07
-1.84295e-07
9.63044e-07
-3.1331e-07
1.2873e-06
-4.67829e-07
1.57284e-06
-6.43039e-07
1.8179e-06
-8.34324e-07
2.02151e-06
-1.03732e-06
2.18346e-06
-1.24795e-06
2.30416e-06
-1.46247e-06
2.38458e-06
-1.67744e-06
2.42615e-06
-1.88979e-06
2.43063e-06
-2.09675e-06
2.40009e-06
-2.29589e-06
2.33679e-06
-2.48506e-06
2.24313e-06
-2.6624e-06
2.12157e-06
-2.8263e-06
1.97464e-06
-2.97537e-06
1.80487e-06
-3.10842e-06
1.61476e-06
-3.22443e-06
1.4068e-06
-3.32256e-06
1.18346e-06
-3.40205e-06
9.47181e-07
-3.46231e-06
7.00392e-07
-3.50283e-06
4.45528e-07
1.85042e-07
-2.40239e-08
2.33998e-07
-9.08581e-08
6.69518e-07
-1.951e-07
1.06729e-06
-3.31311e-07
1.42351e-06
-4.9412e-07
1.73565e-06
-6.7832e-07
2.0021e-06
-8.78939e-07
2.22213e-06
-1.0913e-06
2.39582e-06
-1.31108e-06
2.52394e-06
-1.53431e-06
2.60781e-06
-1.75743e-06
2.64926e-06
-1.97724e-06
2.65044e-06
-2.19093e-06
2.61379e-06
-2.39605e-06
2.54192e-06
-2.5905e-06
2.43757e-06
-2.77244e-06
2.30351e-06
-2.94033e-06
2.14254e-06
-3.09286e-06
1.9574e-06
-3.22892e-06
1.75082e-06
-3.34759e-06
1.52547e-06
-3.44807e-06
1.28394e-06
-3.5297e-06
1.02881e-06
-3.59191e-06
7.62606e-07
-3.63424e-06
4.8785e-07
2.07075e-07
-2.54652e-08
2.59464e-07
-9.61883e-08
7.40241e-07
-2.06302e-07
1.1774e-06
-3.49893e-07
1.5671e-06
-5.21133e-07
1.90689e-06
-7.14386e-07
2.19535e-06
-9.24294e-07
2.43204e-06
-1.14586e-06
2.61738e-06
-1.37447e-06
2.75255e-06
-1.60597e-06
2.83932e-06
-1.83664e-06
2.87993e-06
-2.06321e-06
2.87701e-06
-2.28284e-06
2.83341e-06
-2.49309e-06
2.75217e-06
-2.69188e-06
2.63636e-06
-2.87748e-06
2.48911e-06
-3.04843e-06
2.31349e-06
-3.20353e-06
2.1125e-06
-3.34179e-06
1.88907e-06
-3.46236e-06
1.64604e-06
-3.56458e-06
1.38615e-06
-3.64784e-06
1.11208e-06
-3.71166e-06
8.26425e-07
-3.7556e-06
5.31789e-07
2.30752e-07
-2.69791e-08
2.86443e-07
-1.01763e-07
8.15025e-07
-2.17966e-07
1.2936e-06
-3.69149e-07
1.71829e-06
-5.48975e-07
2.08671e-06
-7.51333e-07
2.39771e-06
-9.7045e-07
2.65116e-06
-1.20097e-06
2.8479e-06
-1.43801e-06
2.98959e-06
-1.67721e-06
3.07851e-06
-1.9147e-06
3.11743e-06
-2.14717e-06
3.10947e-06
-2.37174e-06
3.05799e-06
-2.58603e-06
2.96646e-06
-2.78804e-06
2.83838e-06
-2.97615e-06
2.67722e-06
-3.14902e-06
2.48636e-06
-3.3056e-06
2.26908e-06
-3.44503e-06
2.0285e-06
-3.5666e-06
1.76762e-06
-3.66977e-06
1.48932e-06
-3.75405e-06
1.19635e-06
-3.81901e-06
8.91393e-07
-3.8643e-06
5.77074e-07
2.56002e-07
-2.85787e-08
3.15021e-07
-1.07625e-07
8.94071e-07
-2.30173e-07
1.41615e-06
-3.89189e-07
1.8773e-06
-5.77765e-07
2.27529e-06
-7.89268e-07
2.60921e-06
-1.01747e-06
2.87935e-06
-1.25662e-06
3.08706e-06
-1.50157e-06
3.23454e-06
-1.74773e-06
3.32467e-06
-1.99113e-06
3.36083e-06
-2.2284e-06
3.34674e-06
-2.4567e-06
3.28629e-06
-2.67372e-06
3.18347e-06
-2.87758e-06
3.04223e-06
-3.06679e-06
2.86643e-06
-3.24021e-06
2.65978e-06
-3.39695e-06
2.42581e-06
-3.53631e-06
2.16786e-06
-3.65778e-06
1.8891e-06
-3.76095e-06
1.59248e-06
-3.84546e-06
1.28086e-06
-3.91099e-06
9.56931e-07
-3.95726e-06
6.2334e-07
2.82687e-07
-3.02802e-08
3.45302e-07
-1.13829e-07
9.7762e-07
-2.43019e-07
1.54534e-06
-4.10145e-07
2.04443e-06
-6.07653e-07
2.4728e-06
-8.2832e-07
2.82988e-06
-1.06541e-06
3.11644e-06
-1.31278e-06
3.33443e-06
-1.56496e-06
3.48672e-06
-1.81717e-06
3.57688e-06
-2.06534e-06
3.60901e-06
-2.30608e-06
3.58748e-06
-2.53663e-06
3.51684e-06
-2.75477e-06
3.40162e-06
-2.95882e-06
3.24628e-06
-3.14747e-06
3.05508e-06
-3.31978e-06
2.8321e-06
-3.47509e-06
2.58112e-06
-3.61293e-06
2.3057e-06
-3.73298e-06
2.00914e-06
-3.83499e-06
1.6945e-06
-3.91879e-06
1.36465e-06
-3.98418e-06
1.02232e-06
-4.03095e-06
6.70114e-07
3.1059e-07
-3.21042e-08
3.77406e-07
-1.20442e-07
1.06596e-06
-2.56628e-07
1.68153e-06
-4.32185e-07
2.21999e-06
-6.38818e-07
2.67943e-06
-8.68643e-07
3.0597e-06
-1.11436e-06
3.36216e-06
-1.36939e-06
3.58946e-06
-1.62795e-06
3.74527e-06
-1.88506e-06
3.834e-06
-2.1366e-06
3.86054e-06
-2.3792e-06
3.83007e-06
-2.61019e-06
3.74783e-06
-2.82755e-06
3.61898e-06
-3.0298e-06
3.44852e-06
-3.21589e-06
3.24118e-06
-3.38516e-06
3.00136e-06
-3.53719e-06
2.73315e-06
-3.67177e-06
2.44029e-06
-3.78882e-06
2.12619e-06
-3.88833e-06
1.794e-06
-3.97028e-06
1.44661e-06
-4.03465e-06
1.08669e-06
-4.08133e-06
7.16798e-07
3.39406e-07
-3.40774e-08
4.11483e-07
-1.2755e-07
1.15943e-06
-2.71156e-07
1.82513e-06
-4.55517e-07
2.40435e-06
-6.71488e-07
2.8954e-06
-9.10429e-07
3.29864e-06
-1.16441e-06
3.61615e-06
-1.42639e-06
3.85144e-06
-1.69025e-06
4.00913e-06
-1.95086e-06
4.09461e-06
-2.20405e-06
4.11374e-06
-2.44653e-06
4.07255e-06
-2.67581e-06
3.97711e-06
-2.89011e-06
3.83328e-06
-3.08822e-06
3.64664e-06
-3.26942e-06
3.42238e-06
-3.43335e-06
3.16529e-06
-3.57992e-06
2.87972e-06
-3.70923e-06
2.56959e-06
-3.82147e-06
2.23844e-06
-3.91688e-06
1.88941e-06
-3.99567e-06
1.52539e-06
-4.05797e-06
1.14899e-06
-4.10384e-06
7.62659e-07
3.68728e-07
-3.62341e-08
4.47717e-07
-1.35267e-07
1.25846e-06
-2.86803e-07
1.97667e-06
-4.80408e-07
2.59795e-06
-7.05946e-07
3.12094e-06
-9.5391e-07
3.54661e-06
-1.21568e-06
3.87791e-06
-1.48368e-06
4.11944e-06
-1.7515e-06
4.27695e-06
-2.01386e-06
4.35698e-06
-2.26662e-06
4.36649e-06
-2.50661e-06
4.31255e-06
-2.73162e-06
4.20211e-06
-2.94015e-06
4.04182e-06
-3.13138e-06
3.83786e-06
-3.30495e-06
3.59595e-06
-3.46091e-06
3.32124e-06
-3.59952e-06
3.01833e-06
-3.72124e-06
2.69131e-06
-3.82658e-06
2.34378e-06
-3.91607e-06
1.9789e-06
-3.99016e-06
1.59948e-06
-4.04919e-06
1.20802e-06
-4.09336e-06
8.06825e-07
3.98038e-07
-3.86194e-08
4.86337e-07
-1.43736e-07
1.36358e-06
-3.03823e-07
2.13676e-06
-5.07193e-07
2.80132e-06
-7.42544e-07
3.35629e-06
-9.99369e-07
3.80343e-06
-1.26827e-06
4.14681e-06
-1.54113e-06
4.3923e-06
-1.81123e-06
4.54704e-06
-2.0732e-06
4.61895e-06
-2.32298e-06
4.61626e-06
-2.55765e-06
4.54723e-06
-2.77533e-06
4.41979e-06
-2.97494e-06
4.24143e-06
-3.15609e-06
4.01901e-06
-3.3189e-06
3.75876e-06
-3.46384e-06
3.46619e-06
-3.59165e-06
3.14614e-06
-3.70315e-06
2.80282e-06
-3.79924e-06
2.43987e-06
-3.88075e-06
2.06041e-06
-3.9484e-06
1.66713e-06
-4.00277e-06
1.26239e-06
-4.04421e-06
8.4827e-07
4.26698e-07
-4.12919e-08
5.27629e-07
-1.53143e-07
1.47543e-06
-3.22542e-07
2.30616e-06
-5.36294e-07
3.01507e-06
-7.81713e-07
3.60171e-06
-1.04714e-06
4.06886e-06
-1.3223e-06
4.42197e-06
-1.59852e-06
4.66852e-06
-1.86879e-06
4.81732e-06
-2.12774e-06
4.8779e-06
-2.37148e-06
4.86001e-06
-2.59745e-06
4.7732e-06
-2.80421e-06
4.62655e-06
-2.99121e-06
4.42843e-06
-3.15861e-06
4.18641e-06
-3.30706e-06
3.90721e-06
-3.43758e-06
3.5967e-06
-3.55137e-06
3.25993e-06
-3.64973e-06
2.90118e-06
-3.73393e-06
2.52407e-06
-3.80516e-06
2.13164e-06
-3.86444e-06
1.72641e-06
-3.91258e-06
1.31053e-06
-3.95014e-06
8.8583e-07
4.5395e-07
-4.43287e-08
5.71957e-07
-1.6373e-07
1.59483e-06
-3.43377e-07
2.4858e-06
-5.68237e-07
3.23993e-06
-8.23979e-07
3.85745e-06
-1.0976e-06
4.34248e-06
-1.37786e-06
4.70224e-06
-1.65552e-06
4.94617e-06
-1.92333e-06
5.08514e-06
-2.17603e-06
5.13059e-06
-2.41003e-06
5.09401e-06
-2.62328e-06
4.98645e-06
-2.81492e-06
4.81819e-06
-2.98506e-06
4.59856e-06
-3.1345e-06
4.33585e-06
-3.26455e-06
4.03726e-06
-3.37682e-06
3.70897e-06
-3.47305e-06
3.35616e-06
-3.55504e-06
2.98316e-06
-3.62448e-06
2.59352e-06
-3.68293e-06
2.19009e-06
-3.73173e-06
1.77521e-06
-3.77193e-06
1.35073e-06
-3.8043e-06
9.18202e-07
4.78919e-07
-4.78312e-08
6.19789e-07
-1.75813e-07
1.72281e-06
-3.66857e-07
2.67685e-06
-6.0368e-07
3.47676e-06
-8.69964e-07
4.12374e-06
-1.15115e-06
4.62367e-06
-1.43496e-06
4.98604e-06
-1.71156e-06
5.22278e-06
-1.97363e-06
5.3472e-06
-2.21611e-06
5.37306e-06
-2.43593e-06
5.31384e-06
-2.63171e-06
5.18223e-06
-2.80335e-06
4.98983e-06
-2.95175e-06
4.74697e-06
-3.07851e-06
4.46261e-06
-3.18565e-06
4.14441e-06
-3.27546e-06
3.79877e-06
-3.35028e-06
3.43098e-06
-3.41242e-06
3.0453e-06
-3.46402e-06
2.64512e-06
-3.50703e-06
2.23309e-06
-3.54308e-06
1.81126e-06
-3.5735e-06
1.38116e-06
-3.59928e-06
9.43976e-07
5.00627e-07
-5.19346e-08
6.71723e-07
-1.898e-07
1.86068e-06
-3.9366e-07
2.88071e-06
-6.43428e-07
3.72653e-06
-9.2039e-07
4.4007e-06
-1.2082e-06
4.91148e-06
-1.49343e-06
5.27127e-06
-1.76578e-06
5.49513e-06
-2.01795e-06
5.59938e-06
-2.24536e-06
5.60047e-06
-2.44567e-06
5.51415e-06
-2.61839e-06
5.35495e-06
-2.7644e-06
5.13584e-06
-2.88556e-06
4.86812e-06
-2.98435e-06
4.5614e-06
-3.06365e-06
4.2237e-06
-3.12646e-06
3.86158e-06
-3.17575e-06
3.48028e-06
-3.21438e-06
3.08393e-06
-3.24493e-06
2.67568e-06
-3.26971e-06
2.25788e-06
-3.29069e-06
1.83223e-06
-3.30943e-06
1.3999e-06
-3.32712e-06
9.61667e-07
5.18013e-07
-5.68194e-08
7.28543e-07
-2.06229e-07
2.01009e-06
-4.24646e-07
3.09912e-06
-6.88463e-07
3.99034e-06
-9.76061e-07
4.6883e-06
-1.26904e-06
5.20445e-06
-1.55281e-06
5.55504e-06
-1.81673e-06
5.75905e-06
-2.0538e-06
5.83646e-06
-2.2602e-06
5.80686e-06
-2.43463e-06
5.68859e-06
-2.57779e-06
5.49811e-06
-2.69174e-06
5.24979e-06
-2.77948e-06
4.95586e-06
-2.84454e-06
4.62646e-06
-2.89068e-06
4.26985e-06
-2.92169e-06
3.89259e-06
-2.94119e-06
3.49978e-06
-2.95254e-06
3.09528e-06
-2.95879e-06
2.68192e-06
-2.96257e-06
2.26167e-06
-2.96614e-06
1.8358e-06
-2.97129e-06
1.40506e-06
-2.9794e-06
9.69772e-07
5.29972e-07
-6.27308e-08
7.91273e-07
-2.25809e-07
2.17317e-06
-4.60908e-07
3.33422e-06
-7.39956e-07
4.26939e-06
-1.03781e-06
4.98615e-06
-1.33376e-06
5.5004e-06
-1.61213e-06
5.8334e-06
-1.86217e-06
6.00909e-06
-2.07758e-06
6.05187e-06
-2.25571e-06
5.98499e-06
-2.39671e-06
5.82959e-06
-2.50277e-06
5.60417e-06
-2.57742e-06
5.32444e-06
-2.62497e-06
5.0034e-06
-2.65009e-06
4.65158e-06
-2.65751e-06
4.27727e-06
-2.6518e-06
3.88688e-06
-2.63721e-06
3.48519e-06
-2.6176e-06
3.07567e-06
-2.59637e-06
2.6607e-06
-2.57649e-06
2.24178e-06
-2.56043e-06
1.81973e-06
-2.55017e-06
1.3948e-06
-2.54723e-06
9.6684e-07
5.35405e-07
-7.00066e-08
8.6128e-07
-2.49485e-07
2.35265e-06
-5.03835e-07
3.58857e-06
-7.99275e-07
4.56483e-06
-1.10642e-06
5.2933e-06
-1.40203e-06
5.79602e-06
-1.66953e-06
6.1009e-06
-1.89856e-06
6.23812e-06
-2.08406e-06
6.23737e-06
-2.22511e-06
6.12604e-06
-2.32379e-06
5.92827e-06
-2.38417e-06
5.66454e-06
-2.41149e-06
5.35176e-06
-2.41155e-06
5.00347e-06
-2.39026e-06
4.63029e-06
-2.35332e-06
4.24033e-06
-2.30604e-06
3.8396e-06
-2.25324e-06
3.43239e-06
-2.1992e-06
3.02163e-06
-2.14763e-06
2.60913e-06
-2.1017e-06
2.19585e-06
-2.06403e-06
1.78206e-06
-2.03675e-06
1.36752e-06
-2.02147e-06
9.51568e-07
5.33286e-07
-7.91211e-08
9.40401e-07
-2.78526e-07
2.55205e-06
-5.55175e-07
3.86522e-06
-8.67941e-07
4.8776e-06
-1.18237e-06
5.60772e-06
-1.47265e-06
6.0863e-06
-1.72176e-06
6.35001e-06
-1.92044e-06
6.43681e-06
-2.06569e-06
6.38262e-06
-2.15904e-06
6.21939e-06
-2.20507e-06
5.97429e-06
-2.21014e-06
5.66961e-06
-2.18147e-06
5.32309e-06
-2.12645e-06
4.94846e-06
-2.05225e-06
4.55609e-06
-1.96548e-06
4.15356e-06
-1.87213e-06
3.74624e-06
-1.77745e-06
3.33771e-06
-1.68602e-06
2.93019e-06
-1.60172e-06
2.52483e-06
-1.52782e-06
2.12195e-06
-1.46701e-06
1.72125e-06
-1.42144e-06
1.32195e-06
-1.39279e-06
9.22916e-07
5.22746e-07
-9.07575e-08
1.03116e-06
-3.14657e-07
2.77595e-06
-6.17111e-07
4.16768e-06
-9.47509e-07
5.20799e-06
-1.26551e-06
5.92572e-06
-1.54296e-06
6.36375e-06
-1.76327e-06
6.57032e-06
-1.91944e-06
6.59298e-06
-2.0116e-06
6.47477e-06
-2.04462e-06
6.25242e-06
-2.02624e-06
5.95591e-06
-1.9655e-06
5.60887e-06
-1.87178e-06
5.22937e-06
-1.75413e-06
4.83081e-06
-1.62085e-06
4.42281e-06
-1.47938e-06
4.01208e-06
-1.33615e-06
3.60302e-06
-1.19671e-06
3.19828e-06
-1.06573e-06
2.79921e-06
-9.47101e-07
2.4062e-06
-8.4404e-07
2.01889e-06
-7.59166e-07
1.63638e-06
-6.94574e-07
1.25736e-06
-6.51891e-07
8.80232e-07
5.03169e-07
-1.05928e-07
1.13709e-06
-3.6025e-07
3.03027e-06
-6.92298e-07
4.49972e-06
-1.03927e-06
5.55497e-06
-1.3543e-06
6.24075e-06
-1.60773e-06
6.61717e-06
-1.78495e-06
6.74755e-06
-1.88288e-06
6.69091e-06
-1.9062e-06
6.49809e-06
-1.8642e-06
6.21042e-06
-1.76839e-06
5.8601e-06
-1.63084e-06
5.47132e-06
-1.46314e-06
5.06167e-06
-1.27585e-06
4.64351e-06
-1.07823e-06
4.2252e-06
-8.78244e-07
3.81209e-06
-6.82546e-07
3.40732e-06
-4.96671e-07
3.0124e-06
-3.25153e-07
2.62769e-06
-1.71685e-07
2.25273e-06
-3.92514e-08
1.88646e-06
6.975e-08
1.52737e-06
1.53412e-07
1.1737e-06
2.10244e-07
8.23401e-07
4.74298e-07
-1.26182e-07
1.26327e-06
-4.18584e-07
3.32267e-06
-7.83798e-07
4.86494e-06
-1.14359e-06
5.91476e-06
-1.44455e-06
6.54171e-06
-1.65741e-06
6.83003e-06
-1.77209e-06
6.86223e-06
-1.79174e-06
6.71056e-06
-1.72738e-06
6.43373e-06
-1.59381e-06
6.07685e-06
-1.40686e-06
5.67315e-06
-1.18169e-06
5.24615e-06
-9.31935e-07
4.81192e-06
-6.69344e-07
4.38092e-06
-4.03749e-07
3.95961e-06
-1.43203e-07
3.55155e-06
1.05799e-07
3.15832e-06
3.38071e-07
2.78013e-06
5.4951e-07
2.41626e-06
7.36878e-07
2.06537e-06
8.97624e-07
1.72571e-06
1.02974e-06
1.39526e-06
1.13163e-06
1.0718e-06
1.20205e-06
7.52985e-07
4.36345e-07
-1.53971e-07
1.41724e-06
-4.94184e-07
3.66289e-06
-8.94705e-07
5.26546e-06
-1.25847e-06
6.27852e-06
-1.52703e-06
6.81027e-06
-1.67521e-06
6.97821e-06
-1.70133e-06
6.88835e-06
-1.61787e-06
6.6271e-06
-1.44412e-06
6.25998e-06
-1.20133e-06
5.83406e-06
-9.09824e-07
5.38164e-06
-5.87586e-07
4.92391e-06
-2.49757e-07
4.47409e-06
9.13568e-08
4.03981e-06
4.25995e-07
3.62497e-06
7.46563e-07
3.23098e-06
1.04724e-06
2.85765e-06
1.32359e-06
2.50377e-06
1.57228e-06
2.16756e-06
1.7908e-06
1.84684e-06
1.97725e-06
1.53926e-06
2.13016e-06
1.24235e-06
2.24839e-06
9.53573e-07
2.33101e-06
6.70357e-07
3.90088e-07
-1.93276e-07
1.61052e-06
-5.93115e-07
4.06273e-06
-1.02697e-06
5.69932e-06
-1.37667e-06
6.62822e-06
-1.58336e-06
7.01696e-06
-1.63246e-06
7.0273e-06
-1.53627e-06
6.79216e-06
-1.3202e-06
6.41103e-06
-1.01356e-06
5.95335e-06
-6.44408e-07
5.46491e-06
-2.37086e-07
4.97432e-06
1.88502e-07
4.49833e-06
6.16745e-07
4.04584e-06
1.03576e-06
3.62079e-06
1.43674e-06
3.22399e-06
1.81327e-06
2.85445e-06
2.16077e-06
2.51015e-06
2.47603e-06
2.18852e-06
2.75682e-06
1.88677e-06
3.00161e-06
1.60206e-06
3.20933e-06
1.33154e-06
3.37922e-06
1.07246e-06
3.5107e-06
8.22097e-07
3.60325e-06
5.77804e-07
3.36949e-07
-2.50656e-07
1.86117e-06
-7.2283e-07
4.5349e-06
-1.17829e-06
6.15478e-06
-1.47982e-06
6.92975e-06
-1.57867e-06
7.11582e-06
-1.48132e-06
6.92995e-06
-1.22115e-06
6.53199e-06
-8.39935e-07
6.02982e-06
-3.77761e-07
5.49117e-06
1.31397e-07
4.95575e-06
6.6076e-07
4.44496e-06
1.19026e-06
3.96883e-06
1.70542e-06
3.53068e-06
2.19616e-06
3.13005e-06
2.65568e-06
2.76447e-06
3.07957e-06
2.43056e-06
3.4651e-06
2.12461e-06
3.8107e-06
1.84291e-06
4.11556e-06
1.58191e-06
4.37933e-06
1.33828e-06
4.60194e-06
1.10894e-06
4.78341e-06
8.90986e-07
4.92378e-06
6.81725e-07
5.02302e-06
4.78572e-07
2.79023e-07
-3.36751e-07
2.19792e-06
-8.90167e-07
5.08832e-06
-1.33437e-06
6.59898e-06
-1.52676e-06
7.12214e-06
-1.44913e-06
7.03818e-06
-1.1438e-06
6.62463e-06
-6.72555e-07
6.06074e-06
-9.51359e-08
5.4524e-06
5.39277e-07
4.85676e-06
1.19373e-06
4.3013e-06
1.84215e-06
3.79655e-06
2.46702e-06
3.34395e-06
3.0572e-06
2.9405e-06
3.60601e-06
2.58124e-06
4.10982e-06
2.26066e-06
4.56701e-06
1.97338e-06
4.97721e-06
1.71441e-06
5.34082e-06
1.4793e-06
5.65863e-06
1.2641e-06
5.9316e-06
1.06531e-06
6.16069e-06
8.79853e-07
6.34673e-06
7.0494e-07
6.49041e-06
5.38048e-07
6.59215e-06
3.7683e-07
2.19052e-07
-4.67157e-07
2.66508e-06
-1.09303e-06
5.71418e-06
-1.45057e-06
6.95652e-06
-1.43127e-06
7.10285e-06
-1.08151e-06
6.68842e-06
-4.96368e-07
6.03948e-06
2.30333e-07
5.33404e-06
1.02426e-06
4.65847e-06
1.83302e-06
4.048e-06
2.62258e-06
3.51174e-06
3.37237e-06
3.04676e-06
4.07103e-06
2.64529e-06
4.71319e-06
2.29834e-06
5.29716e-06
1.99726e-06
5.82346e-06
1.73436e-06
6.2938e-06
1.50304e-06
6.71045e-06
1.29776e-06
7.07588e-06
1.11388e-06
7.39248e-06
9.47496e-07
7.66247e-06
7.95329e-07
7.88776e-06
6.54562e-07
8.06995e-06
5.22752e-07
8.21026e-06
3.97731e-07
8.30956e-06
2.77529e-07
1.60305e-07
-6.56502e-07
3.32158e-06
-1.2924e-06
6.35008e-06
-1.41006e-06
7.07418e-06
-1.02128e-06
6.71407e-06
-2.82532e-07
5.94968e-06
6.48724e-07
5.10823e-06
1.65427e-06
4.32849e-06
2.65788e-06
3.65486e-06
3.61573e-06
3.09015e-06
4.50554e-06
2.62193e-06
5.3182e-06
2.23409e-06
6.05217e-06
1.91132e-06
6.7099e-06
1.64062e-06
7.29573e-06
1.41143e-06
7.81471e-06
1.21537e-06
8.27193e-06
1.04582e-06
8.67216e-06
8.97532e-07
9.01969e-06
7.66346e-07
9.31828e-06
6.48907e-07
9.57113e-06
5.42478e-07
9.7809e-06
4.44789e-07
9.94974e-06
3.53917e-07
1.00793e-05
2.68194e-07
1.01707e-05
1.86134e-07
1.06364e-07
-8.8803e-07
4.20961e-06
-1.33348e-06
6.79554e-06
-9.35244e-07
6.67594e-06
2.9236e-08
5.74959e-06
1.26091e-06
4.718e-06
2.55958e-06
3.80955e-06
3.81285e-06
3.07523e-06
4.9678e-06
2.4999e-06
6.00606e-06
2.05189e-06
6.92697e-06
1.70102e-06
7.73798e-06
1.42308e-06
8.44946e-06
1.19983e-06
9.07225e-06
1.01783e-06
9.61644e-06
8.67241e-07
1.0091e-05
7.40817e-07
1.05036e-05
6.3318e-07
1.08609e-05
5.4027e-07
1.11683e-05
4.58982e-07
1.14303e-05
3.86898e-07
1.16506e-05
3.22098e-07
1.18324e-05
2.63029e-07
1.19779e-05
2.084e-07
1.2089e-05
1.57113e-07
1.21669e-05
1.08205e-07
6.07968e-08
-1.01533e-06
5.22494e-06
-7.47874e-07
6.52808e-06
5.83976e-07
5.34409e-06
2.29991e-06
4.03366e-06
4.01952e-06
2.99839e-06
5.58467e-06
2.2444e-06
6.9488e-06
1.71109e-06
8.11552e-06
1.33319e-06
9.107e-06
1.06042e-06
9.94931e-06
8.58708e-07
1.06667e-05
7.05743e-07
1.12796e-05
5.86905e-07
1.18049e-05
4.92494e-07
1.22562e-05
4.1595e-07
1.26443e-05
3.52731e-07
1.29779e-05
2.9962e-07
1.32638e-05
2.54282e-07
1.35078e-05
2.14985e-07
1.37143e-05
1.80412e-07
1.38869e-05
1.49544e-07
1.40283e-05
1.21567e-07
1.41409e-05
9.58181e-08
1.42263e-05
7.17415e-08
1.42856e-05
4.88535e-08
2.67188e-08
-2.34977e-07
5.45992e-06
1.80398e-06
4.48912e-06
4.40145e-06
2.74662e-06
6.72175e-06
1.71336e-06
8.60683e-06
1.11332e-06
1.00972e-05
7.53982e-07
1.12737e-05
5.34626e-07