/*--------------------------------*- C++ -*----------------------------------*\
| =========                 |                                                 |
| \\      /  F ield         | OpenFOAM: The Open Source CFD Toolbox           |
|  \\    /   O peration     | Version:  v2012                                 |
|   \\  /    A nd           | Website:  www.openfoam.com                      |
|    \\/     M anipulation  |                                                 |
\*---------------------------------------------------------------------------*/
FoamFile
{
    version     2.0;
    format      ascii;
    class       volVectorField;
    location    "0.3";
    object      U;
}
// * * * * * * * * * * * * * * * * * * * * * * * * * * * * * * * * * * * * * //

dimensions      [0 1 -1 0 0 0 0];


internalField   nonuniform List<vector> 
1250
(
(3.26665e-05 -3.28091e-05 0)
(9.87575e-05 -4.0715e-05 0)
(0.000137297 -2.09771e-05 0)
(0.000106223 7.85554e-06 0)
(-8.74232e-06 3.77326e-05 0)
(-0.000206044 6.53486e-05 0)
(-0.000478343 8.93918e-05 0)
(-0.000815818 0.000109449 0)
(-0.00120753 0.000125496 0)
(-0.0016422 0.000137671 0)
(-0.00210868 0.00014618 0)
(-0.00259616 0.000151255 0)
(-0.00309437 0.000153135 0)
(-0.00359358 0.000152063 0)
(-0.00408474 0.000148276 0)
(-0.00455945 0.00014201 0)
(-0.00501 0.000133493 0)
(-0.00542939 0.000122948 0)
(-0.00581131 0.000110596 0)
(-0.00615015 9.66544e-05 0)
(-0.00644103 8.13399e-05 0)
(-0.00667978 6.48697e-05 0)
(-0.00686296 4.74634e-05 0)
(-0.00698788 2.93454e-05 0)
(-0.00705261 1.07456e-05 0)
(4.10724e-05 -9.92153e-05 0)
(9.38947e-05 -9.30083e-05 0)
(4.54592e-05 1.44825e-05 0)
(-0.000168768 0.000161836 0)
(-0.00057575 0.000318329 0)
(-0.00117683 0.000467952 0)
(-0.00195964 0.000602378 0)
(-0.00290394 0.000717545 0)
(-0.00398505 0.000811712 0)
(-0.00517607 0.000884418 0)
(-0.00644931 0.000935937 0)
(-0.00777725 0.000966981 0)
(-0.00913307 0.000978526 0)
(-0.0104911 0.000971716 0)
(-0.0118272 0.000947791 0)
(-0.0131187 0.000908057 0)
(-0.0143445 0.000853853 0)
(-0.0154857 0.000786544 0)
(-0.0165249 0.000707511 0)
(-0.0174467 0.000618148 0)
(-0.0182378 0.000519867 0)
(-0.0188867 0.000414099 0)
(-0.0193841 0.000302301 0)
(-0.0197224 0.000185964 0)
(-0.0198967 6.66143e-05 0)
(2.2488e-05 -0.000139293 0)
(-1.00557e-05 -4.57815e-05 0)
(-0.000234105 0.00023959 0)
(-0.00070598 0.00060925 0)
(-0.0014515 0.00100278 0)
(-0.0024722 0.00138383 0)
(-0.00375228 0.00173087 0)
(-0.00526465 0.00203178 0)
(-0.00697522 0.00228022 0)
(-0.00884588 0.00247345 0)
(-0.0108366 0.00261099 0)
(-0.0129068 0.00269383 0)
(-0.0150167 0.00272397 0)
(-0.0171275 0.002704 0)
(-0.0192026 0.00263698 0)
(-0.0212073 0.00252626 0)
(-0.0231095 0.00237537 0)
(-0.0248798 0.00218799 0)
(-0.0264914 0.00196789 0)
(-0.0279205 0.00171895 0)
(-0.0291465 0.00144511 0)
(-0.0301517 0.00115038 0)
(-0.0309214 0.000838872 0)
(-0.0314444 0.000514792 0)
(-0.0317128 0.000182448 0)
(-4.90765e-06 -0.000112295 0)
(-0.000153886 0.000164515 0)
(-0.000600134 0.000710304 0)
(-0.00137342 0.00138002 0)
(-0.00248842 0.00208556 0)
(-0.00394252 0.00276954 0)
(-0.00571508 0.00339536 0)
(-0.00777273 0.00394072 0)
(-0.0100738 0.00439289 0)
(-0.0125716 0.00474546 0)
(-0.0152162 0.00499634 0)
(-0.017957 0.00514636 0)
(-0.0207436 0.0051984 0)
(-0.0235266 0.00515672 0)
(-0.0262591 0.0050266 0)
(-0.0288966 0.004814 0)
(-0.0313974 0.00452536 0)
(-0.0337234 0.00416749 0)
(-0.03584 0.00374748 0)
(-0.0377162 0.00327263 0)
(-0.039325 0.0027504 0)
(-0.0406433 0.00218848 0)
(-0.0416522 0.00159472 0)
(-0.0423372 0.000977165 0)
(-0.0426878 0.000344058 0)
(-3.36936e-05 -3.33101e-06 0)
(-0.000310065 0.000567854 0)
(-0.00100036 0.00145835 0)
(-0.00209816 0.0024977 0)
(-0.00360044 0.00357559 0)
(-0.00549653 0.0046161 0)
(-0.00775876 0.00556813 0)
(-0.0103468 0.00639888 0)
(-0.013212 0.00708841 0)
(-0.0162999 0.00762592 0)
(-0.0195527 0.00800703 0)
(-0.0229113 0.00823201 0)
(-0.0263165 0.00830447 0)
(-0.0297106 0.00823036 0)
(-0.0330378 0.00801739 0)
(-0.0362454 0.00767452 0)
(-0.039284 0.00721162 0)
(-0.0421081 0.00663923 0)
(-0.0446764 0.00596844 0)
(-0.0469518 0.00521072 0)
(-0.048902 0.00437793 0)
(-0.0504994 0.00348223 0)
(-0.0517215 0.00253611 0)
(-0.0525507 0.0015524 0)
(-0.0529747 0.000544219 0)
(-6.11614e-05 0.000188467 0)
(-0.000465806 0.0011729 0)
(-0.00140669 0.00249748 0)
(-0.00283789 0.00397674 0)
(-0.00473501 0.0054841 0)
(-0.00707638 0.00692854 0)
(-0.0098252 0.00824629 0)
(-0.0129331 0.00939469 0)
(-0.0163438 0.0103467 0)
(-0.0199957 0.0110869 0)
(-0.0238239 0.0116085 0)
(-0.0277617 0.0119109 0)
(-0.0317428 0.0119983 0)
(-0.0357019 0.0118786 0)
(-0.0395763 0.011562 0)
(-0.0433062 0.0110607 0)
(-0.0468357 0.0103886 0)
(-0.0501132 0.00956029 0)
(-0.0530917 0.00859151 0)
(-0.055729 0.00749857 0)
(-0.0579884 0.00629836 0)
(-0.0598386 0.00500827 0)
(-0.0612537 0.0036462 0)
(-0.0622139 0.00223051 0)
(-0.0627051 0.000780026 0)
(-8.65265e-05 0.000459829 0)
(-0.000615702 0.00197854 0)
(-0.00180514 0.00382982 0)
(-0.00356968 0.00582077 0)
(-0.00586213 0.00781381 0)
(-0.00864784 0.0097065 0)
(-0.0118792 0.0114247 0)
(-0.0154984 0.0129174 0)
(-0.0194412 0.014151 0)
(-0.0236386 0.0151059 0)
(-0.0280186 0.0157729 0)
(-0.0325079 0.0161507 0)
(-0.0370334 0.0162444 0)
(-0.0415237 0.0160636 0)
(-0.0459097 0.0156214 0)
(-0.0501259 0.0149337 0)
(-0.0541107 0.0140183 0)
(-0.0578075 0.0128949 0)
(-0.0611644 0.011584 0)
(-0.0641351 0.0101073 0)
(-0.0666792 0.00848733 0)
(-0.068762 0.00674737 0)
(-0.0703552 0.00491133 0)
(-0.0714367 0.00300375 0)
(-0.0719912 0.00104984 0)
(-0.000109802 0.000806401 0)
(-0.000758142 0.00297925 0)
(-0.00219 0.00545124 0)
(-0.00428298 0.00802696 0)
(-0.00696694 0.0105621 0)
(-0.0101932 0.0129461 0)
(-0.0139021 0.0150971 0)
(-0.0180255 0.016957 0)
(-0.0224903 0.0184873 0)
(-0.0272196 0.0196647 0)
(-0.0321346 0.0204782 0)
(-0.0371552 0.0209261 0)
(-0.0422025 0.0210145 0)
(-0.047199 0.0207552 0)
(-0.0520704 0.0201645 0)
(-0.056746 0.0192621 0)
(-0.0611595 0.0180705 0)
(-0.0652499 0.0166142 0)
(-0.0689613 0.0149194 0)
(-0.072244 0.0130136 0)
(-0.0750543 0.0109254 0)
(-0.0773549 0.00868439 0)
(-0.0791153 0.00632103 0)
(-0.0803117 0.00386662 0)
(-0.0809274 0.00135328 0)
(-0.00013129 0.00122385 0)
(-0.000893335 0.00416798 0)
(-0.00256016 0.00735484 0)
(-0.00497455 0.0105894 0)
(-0.00804411 0.0137238 0)
(-0.0117056 0.0166422 0)
(-0.0158867 0.0192572 0)
(-0.0205079 0.0215058 0)
(-0.0254868 0.0233455 0)
(-0.0307383 0.0247506 0)
(-0.036176 0.0257089 0)
(-0.0417136 0.026219 0)
(-0.0472661 0.0262886 0)
(-0.0527507 0.0259318 0)
(-0.0580882 0.0251687 0)
(-0.0632033 0.0240232 0)
(-0.0680258 0.0225226 0)
(-0.0724907 0.020697 0)
(-0.0765389 0.0185784 0)
(-0.0801176 0.0162005 0)
(-0.0831806 0.0135984 0)
(-0.0856884 0.0108085 0)
(-0.0876085 0.00786823 0)
(-0.0889157 0.00481596 0)
(-0.0895923 0.00169119 0)
(-0.000151365 0.00170838 0)
(-0.00102229 0.00553772 0)
(-0.00291682 0.00953304 0)
(-0.00564534 0.0135013 0)
(-0.00909403 0.0172929 0)
(-0.0131852 0.0207893 0)
(-0.0178331 0.0238995 0)
(-0.0229468 0.0265573 0)
(-0.0284335 0.0287179 0)
(-0.0341997 0.0303542 0)
(-0.0401513 0.0314538 0)
(-0.0461954 0.0320165 0)
(-0.0522412 0.032052 0)
(-0.0582008 0.0315777 0)
(-0.0639902 0.0306174 0)
(-0.0695302 0.0292 0)
(-0.0747468 0.0273581 0)
(-0.079572 0.0251275 0)
(-0.0839438 0.0225466 0)
(-0.0878069 0.0196556 0)
(-0.0911128 0.0164964 0)
(-0.0938203 0.0131124 0)
(-0.0958954 0.00954851 0)
(-0.0973115 0.00585051 0)
(-0.0980498 0.00206554 0)
(-0.00017039 0.00225695 0)
(-0.00114631 0.00708238 0)
(-0.00326235 0.0119788 0)
(-0.00629848 0.0167557 0)
(-0.0101204 0.0212634 0)
(-0.0146359 0.025382 0)
(-0.019746 0.0290189 0)
(-0.0253476 0.0321063 0)
(-0.0313374 0.0345986 0)
(-0.0376126 0.0364686 0)
(-0.0440715 0.0377048 0)
(-0.0506145 0.0383092 0)
(-0.0571447 0.0382941 0)
(-0.0635693 0.0376811 0)
(-0.0698 0.0364984 0)
(-0.0757538 0.0347801 0)
(-0.0813535 0.0325646 0)
(-0.0865283 0.0298941 0)
(-0.0912137 0.0268135 0)
(-0.0953524 0.0233697 0)
(-0.0988943 0.0196121 0)
(-0.101796 0.0155912 0)
(-0.104024 0.0113595 0)
(-0.105548 0.00697049 0)
(-0.10635 0.00247923 0)
(-0.000188695 0.00286729 0)
(-0.00126677 0.00879716 0)
(-0.0035996 0.0146865 0)
(-0.0069382 0.0203471 0)
(-0.0111285 0.0256302 0)
(-0.0160642 0.0304158 0)
(-0.0216327 0.0346112 0)
(-0.0277185 0.0381487 0)
(-0.0342075 0.0409831 0)
(-0.0409876 0.0430885 0)
(-0.0479488 0.0444559 0)
(-0.0549846 0.0450899 0)
(-0.0619923 0.045007 0)
(-0.0688742 0.0442332 0)
(-0.0755377 0.0428021 0)
(-0.0818965 0.0407537 0)
(-0.0878704 0.0381327 0)
(-0.0933861 0.0349879 0)
(-0.0983773 0.031371 0)
(-0.102785 0.0273364 0)
(-0.106558 0.0229406 0)
(-0.109651 0.0182419 0)
(-0.112029 0.0133003 0)
(-0.113662 0.00817729 0)
(-0.114531 0.00293594 0)
(-0.000206563 0.00353787 0)
(-0.00138498 0.0106787 0)
(-0.00393148 0.0176519 0)
(-0.0075691 0.0242712 0)
(-0.0121246 0.0303893 0)
(-0.0174775 0.0358872 0)
(-0.0235017 0.0406732 0)
(-0.0300691 0.0446811 0)
(-0.0370544 0.0478678 0)
(-0.0443358 0.05021 0)
(-0.0517951 0.051702 0)
(-0.0593187 0.0523529 0)
(-0.066798 0.0521839 0)
(-0.0741303 0.0512267 0)
(-0.0812193 0.0495209 0)
(-0.0879752 0.0471129 0)
(-0.0943154 0.0440544 0)
(-0.100165 0.0404013 0)
(-0.105455 0.0362125 0)
(-0.110126 0.0315501 0)
(-0.114124 0.0264781 0)
(-0.117406 0.0210624 0)
(-0.119934 0.0153709 0)
(-0.121678 0.00947311 0)
(-0.122617 0.00344004 0)
(-0.000224242 0.00426785 0)
(-0.00150215 0.0127251 0)
(-0.0042608 0.0208725 0)
(-0.00819575 0.0285256 0)
(-0.0131148 0.0355385 0)
(-0.0188834 0.0417941 0)
(-0.0253618 0.0472028 0)
(-0.0324089 0.0517014 0)
(-0.0398883 0.0552499 0)
(-0.047668 0.0578294 0)
(-0.0556216 0.0594389 0)
(-0.063628 0.0600929 0)
(-0.071573 0.0598188 0)
(-0.079349 0.0586546 0)
(-0.0868559 0.0566472 0)
(-0.0940011 0.05385 0)
(-0.1007 0.0503222 0)
(-0.106875 0.0461273 0)
(-0.112457 0.0413321 0)
(-0.117385 0.0360062 0)
(-0.121606 0.0302213 0)
(-0.125074 0.0240514 0)
(-0.127751 0.0175721 0)
(-0.129607 0.0108607 0)
(-0.13062 0.00399638 0)
(-0.000241942 0.00505698 0)
(-0.00161937 0.0149356 0)
(-0.00459019 0.0243477 0)
(-0.00882253 0.0331095 0)
(-0.0141051 0.0410769 0)
(-0.0202894 0.0481355 0)
(-0.0272214 0.0541988 0)
(-0.0347472 0.0592077 0)
(-0.0427187 0.063127 0)
(-0.0509939 0.0659434 0)
(-0.0594374 0.0676621 0)
(-0.0679213 0.0683044 0)
(-0.0763253 0.0679051 0)
(-0.0845374 0.0665098 0)
(-0.0924538 0.0641731 0)
(-0.0999794 0.0609568 0)
(-0.107027 0.0569282 0)
(-0.11352 0.0521586 0)
(-0.119386 0.0467232 0)
(-0.124565 0.0406993 0)
(-0.129003 0.0341668 0)
(-0.132653 0.0272073 0)
(-0.135479 0.0199042 0)
(-0.137449 0.0123428 0)
(-0.13854 0.00461021 0)
(-0.000259848 0.00590556 0)
(-0.00173762 0.017311 0)
(-0.00492208 0.0280782 0)
(-0.00945346 0.0380236 0)
(-0.0151012 0.0470053 0)
(-0.0217022 0.0549117 0)
(-0.0290884 0.0616608 0)
(-0.0370924 0.0671987 0)
(-0.0455541 0.0714966 0)
(-0.0543213 0.0745482 0)
(-0.0632498 0.0763664 0)
(-0.0722045 0.0769809 0)
(-0.0810594 0.076435 0)
(-0.089698 0.0747832 0)
(-0.0980135 0.0720892 0)
(-0.105908 0.0684237 0)
(-0.113295 0.0638625 0)
(-0.120093 0.0584861 0)
(-0.126234 0.0523776 0)
(-0.131655 0.045623 0)
(-0.136303 0.0383098 0)
(-0.140133 0.0305276 0)
(-0.143105 0.0223675 0)
(-0.145189 0.0139223 0)
(-0.146363 0.0052869 0)
(-0.000278119 0.0068144 0)
(-0.00185779 0.0198531 0)
(-0.00525865 0.0320663 0)
(-0.0100923 0.0432705 0)
(-0.0161083 0.0533257 0)
(-0.0231284 0.0621241 0)
(-0.03097 0.0695891 0)
(-0.0394518 0.0756734 0)
(-0.0484015 0.080356 0)
(-0.0576563 0.0836392 0)
(-0.0670633 0.0855454 0)
(-0.0764801 0.0861141 0)
(-0.0857753 0.0853987 0)
(-0.0948283 0.0834639 0)
(-0.103529 0.0803836 0)
(-0.11178 0.0762381 0)
(-0.11949 0.0711132 0)
(-0.126581 0.0650982 0)
(-0.132984 0.0582853 0)
(-0.138636 0.0507687 0)
(-0.143486 0.042644 0)
(-0.147487 0.0340086 0)
(-0.150602 0.024961 0)
(-0.152802 0.0156014 0)
(-0.154061 0.00603178 0)
(-0.000296903 0.00778471 0)
(-0.0019807 0.0225646 0)
(-0.00560196 0.0363157 0)
(-0.0107425 0.0488539 0)
(-0.017131 0.0600415 0)
(-0.0245737 0.069775 0)
(-0.0328723 0.0779844 0)
(-0.0418314 0.0846303 0)
(-0.0512661 0.0897013 0)
(-0.0610027 0.0932101 0)
(-0.0708795 0.0951903 0)
(-0.0807471 0.095693 0)
(-0.0904688 0.0947832 0)
(-0.0999203 0.0925374 0)
(-0.10899 0.0890406 0)
(-0.117577 0.0843842 0)
(-0.125593 0.0786643 0)
(-0.132959 0.07198 0)
(-0.139607 0.0644326 0)
(-0.145476 0.0561249 0)
(-0.150514 0.0471606 0)
(-0.154679 0.0376444 0)
(-0.157932 0.0276822 0)
(-0.160244 0.0173811 0)
(-0.161592 0.00684989 0)
(-0.000316337 0.00881811 0)
(-0.00210713 0.0254494 0)
(-0.00595396 0.0408314 0)
(-0.0114074 0.054779 0)
(-0.0181739 0.0671569 0)
(-0.0260433 0.0778671 0)
(-0.0348009 0.0868471 0)
(-0.0442364 0.0940672 0)
(-0.0541517 0.0995274 0)
(-0.0643622 0.103253 0)
(-0.0746972 0.10529 0)
(-0.0850006 0.105703 0)
(-0.0951307 0.104572 0)
(-0.10496 0.101985 0)
(-0.114375 0.0980403 0)
(-0.123276 0.0928414 0)
(-0.131574 0.0864954 0)
(-0.139192 0.0791119 0)
(-0.146063 0.0708017 0)
(-0.152129 0.0616763 0)
(-0.157341 0.0518472 0)
(-0.161656 0.0414265 0)
(-0.165039 0.0305267 0)
(-0.167461 0.0192614 0)
(-0.168898 0.00774562 0)
(-0.000336557 0.00991665 0)
(-0.00223784 0.0285122 0)
(-0.00631657 0.0456195 0)
(-0.0120901 0.0610521 0)
(-0.0192414 0.0746775 0)
(-0.0275421 0.0864038 0)
(-0.0367605 0.0961777 0)
(-0.0466704 0.103981 0)
(-0.0570602 0.109827 0)
(-0.0677338 0.113756 0)
(-0.0785118 0.115829 0)
(-0.0892314 0.116126 0)
(-0.0997465 0.114743 0)
(-0.109927 0.111782 0)
(-0.11966 0.107357 0)
(-0.128845 0.101583 0)
(-0.137394 0.0945801 0)
(-0.145234 0.0864688 0)
(-0.152301 0.0773696 0)
(-0.15854 0.0674026 0)
(-0.163903 0.0566873 0)
(-0.168352 0.0453426 0)
(-0.171852 0.0334872 0)
(-0.174378 0.0212403 0)
(-0.175904 0.00872243 0)
(-0.000357707 0.0110827 0)
(-0.00237364 0.0317587 0)
(-0.0066918 0.0506875 0)
(-0.0127939 0.0676807 0)
(-0.0203376 0.0826091 0)
(-0.0290749 0.0953883 0)
(-0.0387556 0.105976 0)
(-0.0491367 0.114367 0)
(-0.0599921 0.120591 0)
(-0.0711145 0.124704 0)
(-0.0823154 0.126787 0)
(-0.0934259 0.126938 0)
(-0.104296 0.125268 0)
(-0.114795 0.121899 0)
(-0.124809 0.116957 0)
(-0.134239 0.110575 0)
(-0.143003 0.102885 0)
(-0.151029 0.0940188 0)
(-0.158256 0.0841067 0)
(-0.164635 0.0732779 0)
(-0.170123 0.0616593 0)
(-0.174683 0.0493761 0)
(-0.178286 0.0365527 0)
(-0.180904 0.0233131 0)
(-0.182518 0.00978236 0)
(-0.000379947 0.0123192 0)
(-0.00251544 0.0351958 0)
(-0.00708184 0.056044 0)
(-0.0135225 0.0746734 0)
(-0.0214672 0.0909586 0)
(-0.0306466 0.104824 0)
(-0.0407903 0.11624 0)
(-0.0516373 0.125218 0)
(-0.0629465 0.131805 0)
(-0.0744987 0.136079 0)
(-0.0860967 0.13814 0)
(-0.0975659 0.138107 0)
(-0.108754 0.136112 0)
(-0.119529 0.132295 0)
(-0.129779 0.126801 0)
(-0.139408 0.119777 0)
(-0.148339 0.111369 0)
(-0.156504 0.101722 0)
(-0.163849 0.0909761 0)
(-0.170329 0.0792692 0)
(-0.175906 0.0667353 0)
(-0.18055 0.0535054 0)
(-0.184233 0.0397084 0)
(-0.186932 0.0254724 0)
(-0.188627 0.0109256 0)
(-0.000403466 0.0136295 0)
(-0.00266426 0.0388313 0)
(-0.00748925 0.0616991 0)
(-0.01428 0.0820401 0)
(-0.0226353 0.0997334 0)
(-0.0322624 0.114714 0)
(-0.0428689 0.126967 0)
(-0.054174 0.136523 0)
(-0.0659209 0.143452 0)
(-0.0778783 0.147855 0)
(-0.0898405 0.149855 0)
(-0.101628 0.149595 0)
(-0.113087 0.147231 0)
(-0.124086 0.142923 0)
(-0.134516 0.136837 0)
(-0.144287 0.129135 0)
(-0.153326 0.11998 0)
(-0.161575 0.109529 0)
(-0.168984 0.0979319 0)
(-0.175517 0.0853356 0)
(-0.181142 0.0718805 0)
(-0.185834 0.0577026 0)
(-0.18957 0.0429345 0)
(-0.19233 0.0277068 0)
(-0.194098 0.01215 0)
(-0.000428494 0.0150174 0)
(-0.00282138 0.0426746 0)
(-0.00791708 0.0676647 0)
(-0.0150711 0.089792 0)
(-0.023848 0.108941 0)
(-0.0339287 0.12506 0)
(-0.044996 0.138152 0)
(-0.0567482 0.14827 0)
(-0.0689118 0.15551 0)
(-0.0812428 0.159999 0)
(-0.0935278 0.16189 0)
(-0.105583 0.161353 0)
(-0.117255 0.158569 0)
(-0.128414 0.153724 0)
(-0.138956 0.147002 0)
(-0.1488 0.138587 0)
(-0.157878 0.128656 0)
(-0.166142 0.117379 0)
(-0.173552 0.104918 0)
(-0.180078 0.0914269 0)
(-0.185699 0.0770517 0)
(-0.190395 0.0619327 0)
(-0.19415 0.0462051 0)
(-0.196949 0.0300007 0)
(-0.198776 0.0134505 0)
(-0.000455323 0.0164876 0)
(-0.00298837 0.0467364 0)
(-0.0083691 0.0739543 0)
(-0.0159019 0.0979421 0)
(-0.0251127 0.118591 0)
(-0.0356525 0.135864 0)
(-0.0471769 0.149787 0)
(-0.0593613 0.160439 0)
(-0.0719141 0.167947 0)
(-0.0845789 0.172471 0)
(-0.0971351 0.174195 0)
(-0.109396 0.173322 0)
(-0.12121 0.170061 0)
(-0.132451 0.164624 0)
(-0.143024 0.157222 0)
(-0.152856 0.148057 0)
(-0.16189 0.137322 0)
(-0.170087 0.125202 0)
(-0.177421 0.111868 0)
(-0.183871 0.0974827 0)
(-0.189425 0.0821966 0)
(-0.194073 0.066153 0)
(-0.197805 0.049488 0)
(-0.200612 0.0323333 0)
(-0.202482 0.0148182 0)
(-0.000484325 0.0180458 0)
(-0.00316723 0.0510299 0)
(-0.0088501 0.0805842 0)
(-0.0167798 0.106505 0)
(-0.0264386 0.128693 0)
(-0.037443 0.147127 0)
(-0.0494184 0.161861 0)
(-0.0620146 0.173007 0)
(-0.0749214 0.180727 0)
(-0.0878701 0.18522 0)
(-0.100633 0.186707 0)
(-0.113024 0.185427 0)
(-0.124893 0.181624 0)
(-0.136124 0.175538 0)
(-0.14663 0.167406 0)
(-0.156349 0.157452 0)
(-0.165239 0.145888 0)
(-0.173275 0.13291 0)
(-0.180442 0.118702 0)
(-0.186734 0.103431 0)
(-0.192147 0.0872528 0)
(-0.196684 0.0703118 0)
(-0.200343 0.0527437 0)
(-0.203121 0.0346778 0)
(-0.205011 0.0162405 0)
(-0.000515985 0.0196985 0)
(-0.00336054 0.0555708 0)
(-0.00936617 0.0875736 0)
(-0.0177144 0.115498 0)
(-0.027837 0.139255 0)
(-0.0393113 0.158848 0)
(-0.0517281 0.174359 0)
(-0.0647096 0.185942 0)
(-0.0779257 0.193803 0)
(-0.0910956 0.198182 0)
(-0.103987 0.199349 0)
(-0.116415 0.197581 0)
(-0.128235 0.19316 0)
(-0.139343 0.18636 0)
(-0.149666 0.177446 0)
(-0.159155 0.166666 0)
(-0.167786 0.154248 0)
(-0.175548 0.140404 0)
(-0.182443 0.125326 0)
(-0.188479 0.109187 0)
(-0.193667 0.0921467 0)
(-0.19802 0.0743479 0)
(-0.201546 0.0559243 0)
(-0.20425 0.0370013 0)
(-0.206132 0.0176995 0)
(-0.000550938 0.0214541 0)
(-0.00357162 0.0603781 0)
(-0.00992513 0.0949456 0)
(-0.0187177 0.124942 0)
(-0.0293225 0.150291 0)
(-0.0412712 0.171022 0)
(-0.0541156 0.18726 0)
(-0.0674476 0.199205 0)
(-0.0809162 0.207113 0)
(-0.0942296 0.211281 0)
(-0.107153 0.212026 0)
(-0.119505 0.209675 0)
(-0.131153 0.204552 0)
(-0.142006 0.196968 0)
(-0.152007 0.187217 0)
(-0.161129 0.175571 0)
(-0.169365 0.16228 0)
(-0.176724 0.147567 0)
(-0.183226 0.131632 0)
(-0.188896 0.114655 0)
(-0.193761 0.0967932 0)
(-0.197845 0.07819 0)
(-0.20117 0.0589738 0)
(-0.203749 0.0392636 0)
(-0.205586 0.0191723 0)
(-0.000590018 0.0233227 0)
(-0.00380481 0.0654751 0)
(-0.010537 0.102728 0)
(-0.0198051 0.13486 0)
(-0.0309132 0.16181 0)
(-0.0433397 0.183645 0)
(-0.0565922 0.200536 0)
(-0.0702291 0.212743 0)
(-0.0838786 0.220585 0)
(-0.0972391 0.224419 0)
(-0.110076 0.224624 0)
(-0.122217 0.22158 0)
(-0.133544 0.21566 0)
(-0.143985 0.207214 0)
(-0.153506 0.196569 0)
(-0.162101 0.184023 0)
(-0.169787 0.169842 0)
(-0.176596 0.154265 0)
(-0.182568 0.137497 0)
(-0.187747 0.119721 0)
(-0.192177 0.101095 0)
(-0.195898 0.0817562 0)
(-0.198942 0.0618269 0)
(-0.201334 0.0414173 0)
(-0.203087 0.02063 0)
(-0.00063433 0.025317 0)
(-0.00406576 0.070891 0)
(-0.0112148 0.110956 0)
(-0.0209961 0.14528 0)
(-0.0326316 0.173827 0)
(-0.0455374 0.196705 0)
(-0.0591705 0.21415 0)
(-0.0730531 0.226491 0)
(-0.0867927 0.234123 0)
(-0.100081 0.237478 0)
(-0.112688 0.237004 0)
(-0.124455 0.233142 0)
(-0.135286 0.226319 0)
(-0.145132 0.216928 0)
(-0.153987 0.205331 0)
(-0.161872 0.191851 0)
(-0.168832 0.176774 0)
(-0.174924 0.160346 0)
(-0.180212 0.142782 0)
(-0.18476 0.124263 0)
(-0.188632 0.104943 0)
(-0.191883 0.0849546 0)
(-0.19456 0.0644098 0)
(-0.196698 0.0434076 0)
(-0.198316 0.0220378 0)
(-0.000685344 0.0274531 0)
(-0.00436185 0.076662 0)
(-0.0119753 0.11967 0)
(-0.0223155 0.156237 0)
(-0.0345058 0.186353 0)
(-0.0478887 0.210188 0)
(-0.0618637 0.228053 0)
(-0.0759146 0.240365 0)
(-0.0896293 0.247612 0)
(-0.102697 0.250313 0)
(-0.114899 0.248997 0)
(-0.126098 0.244177 0)
(-0.136225 0.236335 0)
(-0.145263 0.225913 0)
(-0.153239 0.213307 0)
(-0.160208 0.198867 0)
(-0.166245 0.182893 0)
(-0.171435 0.165643 0)
(-0.175869 0.147332 0)
(-0.179634 0.128141 0)
(-0.182814 0.108217 0)
(-0.18548 0.0876835 0)
(-0.187693 0.0666403 0)
(-0.1895 0.0451727 0)
(-0.19093 0.0233547 0)
(-0.000745032 0.0297515 0)
(-0.00470282 0.0828336 0)
(-0.01284 0.128923 0)
(-0.0237944 0.167769 0)
(-0.0365698 0.199403 0)
(-0.0504216 0.224069 0)
(-0.0646842 0.242177 0)
(-0.0788016 0.254257 0)
(-0.0923454 0.260905 0)
(-0.105009 0.262747 0)
(-0.116594 0.260403 0)
(-0.126993 0.254467 0)
(-0.136173 0.245482 0)
(-0.144158 0.233941 0)
(-0.151014 0.220274 0)
(-0.156834 0.204855 0)
(-0.161729 0.187999 0)
(-0.165816 0.169969 0)
(-0.169212 0.15098 0)
(-0.17203 0.131206 0)
(-0.174373 0.110788 0)
(-0.17633 0.0898332 0)
(-0.177978 0.0684293 0)
(-0.179373 0.0466443 0)
(-0.180555 0.0245343 0)
(-0.000816064 0.0322385 0)
(-0.00510153 0.0894633 0)
(-0.0138369 0.138778 0)
(-0.0254722 0.179922 0)
(-0.038865 0.212984 0)
(-0.0531669 0.238309 0)
(-0.0676405 0.256434 0)
(-0.0816897 0.268026 0)
(-0.0948764 0.273818 0)
(-0.106908 0.27456 0)
(-0.117618 0.270979 0)
(-0.126941 0.263754 0)
(-0.134892 0.253498 0)
(-0.141544 0.240752 0)
(-0.147009 0.225982 0)
(-0.151424 0.20958 0)
(-0.154939 0.191873 0)
(-0.157705 0.173124 0)
(-0.159869 0.153545 0)
(-0.161568 0.133301 0)
(-0.162925 0.112517 0)
(-0.164047 0.091288 0)
(-0.165023 0.0696824 0)
(-0.165922 0.0477495 0)
(-0.166792 0.025525 0)
(-0.0009021 0.034948 0)
(-0.00557516 0.0966244 0)
(-0.0150024 0.149313 0)
(-0.0273982 0.192749 0)
(-0.0414396 0.227101 0)
(-0.0561562 0.252851 0)
(-0.0707317 0.270701 0)
(-0.0845336 0.281492 0)
(-0.0971251 0.286122 0)
(-0.108243 0.285486 0)
(-0.117766 0.280433 0)
(-0.125688 0.271737 0)
(-0.132084 0.260081 0)
(-0.137085 0.246054 0)
(-0.140859 0.230152 0)
(-0.143592 0.212784 0)
(-0.145475 0.194279 0)
(-0.146694 0.174897 0)
(-0.147425 0.154841 0)
(-0.14783 0.134261 0)
(-0.14805 0.113265 0)
(-0.148209 0.0919301 0)
(-0.148407 0.0703032 0)
(-0.148724 0.0484129 0)
(-0.149217 0.0262724 0)
(-0.00100825 0.0379246 0)
(-0.00614686 0.10441 0)
(-0.0163838 0.160625 0)
(-0.0296337 0.206308 0)
(-0.0443493 0.241747 0)
(-0.0594173 0.267608 0)
(-0.0739387 0.284812 0)
(-0.0872541 0.294418 0)
(-0.098945 0.297525 0)
(-0.108798 0.295198 0)
(-0.116761 0.288421 0)
(-0.122901 0.278067 0)
(-0.127369 0.264891 0)
(-0.130368 0.249524 0)
(-0.132125 0.232486 0)
(-0.132881 0.214193 0)
(-0.132869 0.194972 0)
(-0.132311 0.175073 0)
(-0.131411 0.15468 0)
(-0.13035 0.133924 0)
(-0.129289 0.112895 0)
(-0.128362 0.0916439 0)
(-0.127682 0.0701972 0)
(-0.127337 0.0485596 0)
(-0.127389 0.0267206 0)
(-0.00114177 0.0412271 0)
(-0.00684831 0.11294 0)
(-0.0180432 0.17283 0)
(-0.0322542 0.220659 0)
(-0.0476544 0.256891 0)
(-0.0629663 0.282448 0)
(-0.0772101 0.298537 0)
(-0.0897179 0.306495 0)
(-0.100117 0.307661 0)
(-0.108271 0.303297 0)
(-0.114225 0.294531 0)
(-0.118143 0.282341 0)
(-0.120266 0.267543 0)
(-0.120878 0.250807 0)
(-0.120275 0.232663 0)
(-0.11875 0.213525 0)
(-0.116582 0.193706 0)
(-0.114023 0.173437 0)
(-0.111303 0.152879 0)
(-0.10862 0.132138 0)
(-0.106146 0.111277 0)
(-0.104026 0.0903228 0)
(-0.102379 0.069277 0)
(-0.101298 0.0481194 0)
(-0.100852 0.0268155 0)
(-0.00131331 0.0449339 0)
(-0.00772358 0.12237 0)
(-0.0200623 0.18607 0)
(-0.0353511 0.235859 0)
(-0.0514146 0.272465 0)
(-0.0667922 0.297171 0)
(-0.0804375 0.311561 0)
(-0.0917063 0.317319 0)
(-0.100311 0.316072 0)
(-0.106237 0.3093 0)
(-0.109652 0.298285 0)
(-0.110844 0.284102 0)
(-0.110162 0.26762 0)
(-0.107979 0.249528 0)
(-0.104663 0.230355 0)
(-0.100561 0.210497 0)
(-0.095988 0.190243 0)
(-0.0912263 0.169792 0)
(-0.0865213 0.149275 0)
(-0.0820837 0.128767 0)
(-0.0780918 0.108301 0)
(-0.0746939 0.0878768 0)
(-0.0720106 0.0674689 0)
(-0.0701373 0.0470324 0)
(-0.0691454 0.0265088 0)
(-0.00153891 0.0491521 0)
(-0.00883517 0.132898 0)
(-0.022549 0.20051 0)
(-0.0390317 0.251946 0)
(-0.0556764 0.288338 0)
(-0.0708315 0.311477 0)
(-0.0834177 0.323446 0)
(-0.0928692 0.32636 0)
(-0.0990431 0.322182 0)
(-0.102092 0.312627 0)
(-0.102352 0.299129 0)
(-0.100259 0.282844 0)
(-0.0962829 0.264673 0)
(-0.090891 0.245303 0)
(-0.0845203 0.22524 0)
(-0.0775656 0.204846 0)
(-0.0703738 0.184369 0)
(-0.0632441 0.163969 0)
(-0.0564306 0.143735 0)
(-0.0501463 0.123708 0)
(-0.044568 0.103887 0)
(-0.0398404 0.0842416 0)
(-0.0360807 0.0647206 0)
(-0.0333812 0.0452545 0)
(-0.0318123 0.0257619 0)
(-0.00184375 0.0540296 0)
(-0.0102738 0.144785 0)
(-0.0256459 0.216335 0)
(-0.0434143 0.268911 0)
(-0.060448 0.30427 0)
(-0.0749212 0.324915 0)
(-0.0857905 0.333588 0)
(-0.0926547 0.33293 0)
(-0.0955953 0.32528 0)
(-0.0949968 0.312596 0)
(-0.0914043 0.296441 0)
(-0.0854233 0.278023 0)
(-0.0776546 0.258245 0)
(-0.068657 0.237759 0)
(-0.058928 0.217025 0)
(-0.0488977 0.196347 0)
(-0.0389302 0.175919 0)
(-0.0293288 0.155847 0)
(-0.0203432 0.136176 0)
(-0.0121773 0.116904 0)
(-0.00499651 0.0979951 0)
(0.00106599 0.0793898 0)
(0.00590365 0.0610102 0)
(0.00943228 0.0427647 0)
(0.0115868 0.0245518 0)
(-0.00226897 0.0597768 0)
(-0.0121741 0.158369 0)
(-0.0295386 0.233742 0)
(-0.0486115 0.286657 0)
(-0.0656493 0.319845 0)
(-0.0787199 0.336816 0)
(-0.0869415 0.341161 0)
(-0.090206 0.336143 0)
(-0.0889242 0.324504 0)
(-0.0837843 0.308419 0)
(-0.0755787 0.289542 0)
(-0.0650974 0.269083 0)
(-0.0530677 0.247898 0)
(-0.0401261 0.22657 0)
(-0.0268114 0.205476 0)
(-0.0135683 0.184846 0)
(-0.000757763 0.164799 0)
(0.0113312 0.145381 0)
(0.0224692 0.126584 0)
(0.0324751 0.108361 0)
(0.0412061 0.0906439 0)
(0.0485499 0.0733423 0)
(0.0544177 0.0563553 0)
(0.0587393 0.0395723 0)
(0.0614594 0.0228759 0)
(-0.00288454 0.0667015 0)
(-0.0147398 0.174084 0)
(-0.034461 0.252894 0)
(-0.0546863 0.304905 0)
(-0.0710138 0.334365 0)
(-0.0815713 0.346191 0)
(-0.0858486 0.345042 0)
(-0.0842119 0.33488 0)
(-0.0775274 0.318831 0)
(-0.0668557 0.299228 0)
(-0.0532618 0.277737 0)
(-0.0377146 0.255499 0)
(-0.0210444 0.233264 0)
(-0.00393559 0.211497 0)
(0.0130645 0.190464 0)
(0.0295269 0.170292 0)
(0.0451208 0.151019 0)
(0.0595941 0.132621 0)
(0.0727562 0.115033 0)
(0.0844638 0.0981681 0)
(0.0946087 0.0819216 0)
(0.103109 0.0661797 0)
(0.1099 0.0508221 0)
(0.114932 0.0357244 0)
(0.118163 0.0207578 0)
(-0.00381329 0.0752689 0)
(-0.018282 0.192482 0)
(-0.040681 0.273843 0)
(-0.0615471 0.323046 0)
(-0.0759036 0.346691 0)
(-0.0822745 0.351612 0)
(-0.0808482 0.343749 0)
(-0.0726979 0.327775 0)
(-0.0592745 0.307111 0)
(-0.0420575 0.284126 0)
(-0.0223747 0.260381 0)
(-0.00133511 0.236852 0)
(0.0201783 0.214111 0)
(0.041486 0.192456 0)
(0.0620787 0.172012 0)
(0.0815834 0.152789 0)
(0.0997317 0.134732 0)
(0.116334 0.117747 0)
(0.131258 0.101715 0)
(0.144414 0.0865109 0)
(0.155738 0.0720012 0)
(0.165187 0.0580532 0)
(0.172728 0.044534 0)
(0.178335 0.0313113 0)
(0.181983 0.0182518 0)
(-0.00527453 0.0862078 0)
(-0.0232684 0.214213 0)
(-0.048425 0.296337 0)
(-0.0687106 0.339874 0)
(-0.0789609 0.355004 0)
(-0.0787039 0.351061 0)
(-0.0692871 0.335385 0)
(-0.0527467 0.313241 0)
(-0.0312087 0.288143 0)
(-0.00655561 0.262296 0)
(0.0196915 0.236993 0)
(0.0463721 0.212934 0)
(0.0726372 0.190437 0)
(0.097887 0.169594 0)
(0.121711 0.150366 0)
(0.14384 0.13264 0)
(0.164101 0.116271 0)
(0.182394 0.101097 0)
(0.198663 0.0869562 0)
(0.212881 0.0736914 0)
(0.225041 0.0611514 0)
(0.235143 0.0491923 0)
(0.243189 0.0376765 0)
(0.249181 0.026471 0)
(0.253113 0.0154457 0)
(-0.00765441 0.100683 0)
(-0.0303551 0.23992 0)
(-0.0576316 0.319433 0)
(-0.0747833 0.353154 0)
(-0.0774715 0.356502 0)
(-0.0672029 0.341802 0)
(-0.0470345 0.31767 0)
(-0.0201569 0.289608 0)
(0.0106582 0.260862 0)
(0.0432584 0.23319 0)
(0.0760912 0.207433 0)
(0.108095 0.183896 0)
(0.138578 0.162592 0)
(0.167114 0.143382 0)
(0.193461 0.126061 0)
(0.217498 0.110402 0)
(0.239183 0.0961816 0)
(0.258521 0.0831891 0)
(0.275546 0.0712321 0)
(0.290304 0.0601361 0)
(0.302844 0.0497428 0)
(0.313213 0.0399082 0)
(0.32145 0.0304989 0)
(0.327582 0.0213899 0)
(0.331624 0.0124611 0)
(-0.0115741 0.120523 0)
(-0.0402532 0.269849 0)
(-0.0672415 0.340745 0)
(-0.0763676 0.358994 0)
(-0.0662435 0.347102 0)
(-0.0416708 0.320411 0)
(-0.00785888 0.288175 0)
(0.0309086 0.255444 0)
(0.0714867 0.224669 0)
(0.111767 0.196833 0)
(0.150439 0.172145 0)
(0.186748 0.150445 0)
(0.22031 0.131421 0)
(0.25097 0.114717 0)
(0.278713 0.0999888 0)
(0.303605 0.0869257 0)
(0.325752 0.0752543 0)
(0.345274 0.0647392 0)
(0.362297 0.0551783 0)
(0.376937 0.0463976 0)
(0.389297 0.0382459 0)
(0.399467 0.0305901 0)
(0.407517 0.0233109 0)
(0.4135 0.0162986 0)
(0.417448 0.00945022 0)
(-0.0177485 0.148551 0)
(-0.0528822 0.30281 0)
(-0.0732995 0.355066 0)
(-0.0658501 0.351045 0)
(-0.0357686 0.321364 0)
(0.00765668 0.283171 0)
(0.0572132 0.244933 0)
(0.108134 0.210187 0)
(0.15755 0.179981 0)
(0.203921 0.154243 0)
(0.246543 0.132469 0)
(0.285202 0.114047 0)
(0.319954 0.0983936 0)
(0.350987 0.0850004 0)
(0.378546 0.0734446 0)
(0.402893 0.0633804 0)
(0.424274 0.0545267 0)
(0.44292 0.0466553 0)
(0.459031 0.0395792 0)
(0.472781 0.0331436 0)
(0.484318 0.0272188 0)
(0.49376 0.0216935 0)
(0.501203 0.0164705 0)
(0.506715 0.0114623 0)
(0.510343 0.00658808 0)
(-0.0258806 0.189372 0)
(-0.0643844 0.333672 0)
(-0.0643981 0.351754 0)
(-0.0272764 0.319467 0)
(0.0304604 0.272791 0)
(0.0955011 0.227022 0)
(0.16022 0.187481 0)
(0.220818 0.15502 0)
(0.27575 0.128864 0)
(0.324686 0.107853 0)
(0.367879 0.090887 0)
(0.405818 0.0770594 0)
(0.439052 0.0656594 0)
(0.468114 0.0561435 0)
(0.493484 0.0480988 0)
(0.51558 0.0412106 0)
(0.534755 0.0352371 0)
(0.551311 0.0299906 0)
(0.565496 0.0253229 0)
(0.577515 0.0211153 0)
(0.587536 0.0172708 0)
(0.595693 0.0137084 0)
(0.602089 0.0103586 0)
(0.606802 0.00716011 0)
(0.609883 0.00405685 0)
(-0.0296293 0.246724 0)
(-0.0583988 0.346547 0)
(-0.0119575 0.311495 0)
(0.0703987 0.251533 0)
(0.159094 0.196214 0)
(0.242193 0.152097 0)
(0.31563 0.118864 0)
(0.37876 0.0942144 0)
(0.432447 0.0758291 0)
(0.478011 0.0619128 0)
(0.51675 0.0511834 0)
(0.549794 0.0427488 0)
(0.578077 0.0359904 0)
(0.602351 0.0304761 0)
(0.623222 0.0258996 0)
(0.641171 0.0220401 0)
(0.656586 0.0187352 0)
(0.669776 0.0158634 0)
(0.68099 0.0133315 0)
(0.690428 0.0110667 0)
(0.698248 0.009011 0)
(0.704576 0.00711666 0)
(0.709507 0.00534351 0)