/*--------------------------------*- C++ -*----------------------------------*\
| =========                 |                                                 |
| \\      /  F ield         | OpenFOAM: The Open Source CFD Toolbox           |
|  \\    /   O peration     | Version:  v2012                                 |
|   \\  /    A nd           | Website:  www.openfoam.com                      |
|    \\/     M anipulation  |                                                 |
\*---------------------------------------------------------------------------*/
FoamFile
{
    version     2.0;
    format      ascii;
    class       surfaceScalarField;
    location    "0.2";
    object      phi;
}
// * * * * * * * * * * * * * * * * * * * * * * * * * * * * * * * * * * * * * //

dimensions      [0 3 -1 0 0 0 0];
oriented        oriented;


internalField   nonuniform List<scalar> 
2425
(
-1.40428e-07
-5.47801e-10
-1.38653e-07
-1.77547e-09
-1.35668e-07
-2.98485e-09
-1.31509e-07
-4.15855e-09
-1.2623e-07
-5.27883e-09
-1.19903e-07
-6.32766e-09
-1.12616e-07
-7.28681e-09
-1.04478e-07
-8.13798e-09
-9.56146e-08
-8.86305e-09
-8.61702e-08
-9.44436e-09
-7.63051e-08
-9.86495e-09
-6.61962e-08
-1.01089e-08
-5.60345e-08
-1.01616e-08
-4.6024e-08
-1.00104e-08
-3.63793e-08
-9.64468e-09
-2.73223e-08
-9.05692e-09
-1.9079e-08
-8.24328e-09
-1.18737e-08
-7.20523e-09
-5.92152e-09
-5.95211e-09
-1.41521e-09
-4.50628e-09
1.49864e-09
-2.91384e-09
2.76358e-09
-1.26494e-09
2.49572e-09
2.67839e-10
1.17405e-09
1.32166e-09
1.17404e-09
-3.96125e-07
-2.08135e-09
-3.91251e-07
-6.64955e-09
-3.83091e-07
-1.11458e-08
-3.71744e-07
-1.55054e-08
-3.5736e-07
-1.96623e-08
-3.40138e-07
-2.35497e-08
-3.20325e-07
-2.71004e-08
-2.98215e-07
-3.02474e-08
-2.74153e-07
-3.29252e-08
-2.48528e-07
-3.507e-08
-2.21771e-07
-3.66216e-08
-1.94356e-07
-3.75243e-08
-1.66789e-07
-3.77285e-08
-1.39607e-07
-3.71925e-08
-1.13367e-07
-3.58847e-08
-8.86374e-08
-3.37866e-08
-6.59838e-08
-3.08969e-08
-4.59515e-08
-2.72376e-08
-2.90395e-08
-2.28641e-08
-1.56632e-08
-1.78826e-08
-6.09677e-09
-1.24803e-08
-3.83151e-10
-6.97859e-09
1.80323e-09
-1.91856e-09
1.33357e-09
1.7913e-09
2.50761e-09
-6.3136e-07
-4.49733e-09
-6.23767e-07
-1.42423e-08
-6.11083e-07
-2.38294e-08
-5.93468e-07
-3.31205e-08
-5.71155e-07
-4.19754e-08
-5.44453e-07
-5.02524e-08
-5.13743e-07
-5.78097e-08
-4.79484e-07
-6.45068e-08
-4.42203e-07
-7.02065e-08
-4.02496e-07
-7.47766e-08
-3.61024e-07
-7.80933e-08
-3.18505e-07
-8.00433e-08
-2.75706e-07
-8.05278e-08
-2.33432e-07
-7.94666e-08
-1.92513e-07
-7.68031e-08
-1.53789e-07
-7.25108e-08
-1.18083e-07
-6.66027e-08
-8.61771e-08
-5.91439e-08
-5.87698e-08
-5.02715e-08
-3.64275e-08
-4.02249e-08
-1.9512e-08
-2.93959e-08
-8.0836e-09
-1.8407e-08
-1.78098e-09
-8.22121e-09
3.29415e-10
-3.19117e-10
2.83702e-09
-8.49882e-07
-7.69781e-09
-8.39892e-07
-2.42326e-08
-8.23227e-07
-4.0495e-08
-8.00095e-07
-5.62516e-08
-7.70805e-07
-7.12656e-08
-7.35759e-07
-8.5299e-08
-6.95455e-07
-9.81138e-08
-6.50486e-07
-1.09475e-07
-6.01537e-07
-1.19155e-07
-5.49379e-07
-1.26935e-07
-4.94861e-07
-1.32611e-07
-4.38904e-07
-1.36e-07
-3.8249e-07
-1.36942e-07
-3.26642e-07
-1.35315e-07
-2.72411e-07
-1.31034e-07
-2.20852e-07
-1.2407e-07
-1.72992e-07
-1.14462e-07
-1.29799e-07
-1.02337e-07
-9.21316e-08
-8.79386e-08
-6.0688e-08
-7.16684e-08
-3.59325e-08
-5.41514e-08
-1.80126e-08
-3.6327e-08
-6.66592e-09
-1.95679e-08
-1.12772e-09
-5.85734e-09
1.7093e-09
-1.05476e-06
-1.15883e-08
-1.04265e-06
-3.63463e-08
-1.02245e-06
-6.06931e-08
-9.94417e-07
-8.42813e-08
-9.58923e-07
-1.06759e-07
-9.16448e-07
-1.27774e-07
-8.67587e-07
-1.46975e-07
-8.13049e-07
-1.64014e-07
-7.53648e-07
-1.78557e-07
-6.903e-07
-1.90283e-07
-6.24013e-07
-1.98898e-07
-5.55878e-07
-2.04135e-07
-4.87052e-07
-2.05769e-07
-4.1874e-07
-2.03627e-07
-3.52175e-07
-1.97599e-07
-2.8859e-07
-1.87655e-07
-2.29183e-07
-1.73869e-07
-1.75083e-07
-1.56438e-07
-1.27295e-07
-1.35726e-07
-8.66541e-08
-1.12309e-07
-5.37599e-08
-8.70457e-08
-2.89116e-08
-6.11753e-08
-1.20486e-08
-3.64309e-08
-2.70623e-09
-1.51997e-08
-9.96961e-10
-1.24863e-06
-1.6076e-08
-1.23463e-06
-5.03476e-08
-1.21127e-06
-8.40495e-08
-1.17885e-06
-1.16705e-07
-1.13777e-06
-1.47832e-07
-1.0886e-06
-1.76948e-07
-1.032e-06
-2.03571e-07
-9.68786e-07
-2.27231e-07
-8.99872e-07
-2.4747e-07
-8.26299e-07
-2.63857e-07
-7.49207e-07
-2.75989e-07
-6.69829e-07
-2.83513e-07
-5.89469e-07
-2.86128e-07
-5.09489e-07
-2.83607e-07
-4.31276e-07
-2.75811e-07
-3.5622e-07
-2.62712e-07
-2.85673e-07
-2.44416e-07
-2.20914e-07
-2.21198e-07
-1.63099e-07
-1.93541e-07
-1.13218e-07
-1.6219e-07
-7.20405e-08
-1.28224e-07
-4.00691e-08
-9.31466e-08
-1.75109e-08
-5.89891e-08
-4.26979e-09
-2.84408e-08
-5.26679e-09
-1.43374e-06
-2.10678e-08
-1.41806e-06
-6.60308e-08
-1.39186e-06
-1.10251e-07
-1.35545e-06
-1.53109e-07
-1.3093e-06
-1.9398e-07
-1.25402e-06
-2.32237e-07
-1.19033e-06
-2.67259e-07
-1.11912e-06
-2.98435e-07
-1.04142e-06
-3.25178e-07
-9.58345e-07
-3.46928e-07
-8.71163e-07
-3.63172e-07
-7.81222e-07
-3.73454e-07
-6.89958e-07
-3.77392e-07
-5.98866e-07
-3.74699e-07
-5.09475e-07
-3.65202e-07
-4.23318e-07
-3.48869e-07
-3.41896e-07
-3.25838e-07
-2.66641e-07
-2.96453e-07
-1.98871e-07
-2.61311e-07
-1.39751e-07
-2.2131e-07
-9.02503e-08
-1.77724e-07
-5.11154e-08
-1.32281e-07
-2.28559e-08
-8.72486e-08
-5.76473e-09
-4.5532e-08
-1.10316e-08
-1.612e-06
-2.6468e-08
-1.59482e-06
-8.32122e-08
-1.56604e-06
-1.3903e-07
-1.526e-06
-1.9315e-07
-1.47519e-06
-2.44792e-07
-1.41425e-06
-2.93177e-07
-1.34397e-06
-3.3753e-07
-1.26532e-06
-3.77092e-07
-1.17936e-06
-4.11131e-07
-1.08734e-06
-4.38953e-07
-9.90589e-07
-4.59921e-07
-8.90575e-07
-4.73468e-07
-7.88846e-07
-4.79121e-07
-6.87021e-07
-4.76524e-07
-5.86761e-07
-4.65462e-07
-4.8974e-07
-4.4589e-07
-3.97609e-07
-4.17969e-07
-3.1196e-07
-3.82102e-07
-2.34288e-07
-3.38983e-07
-1.65953e-07
-2.89645e-07
-1.08151e-07
-2.35526e-07
-6.18954e-08
-1.78537e-07
-2.8013e-08
-1.21131e-07
-7.1787e-09
-6.63664e-08
-1.82103e-08
-1.78499e-06
-3.21766e-08
-1.76648e-06
-1.01723e-07
-1.73535e-06
-1.70154e-07
-1.69197e-06
-2.36537e-07
-1.63683e-06
-2.9993e-07
-1.57061e-06
-3.5939e-07
-1.49416e-06
-4.13981e-07
-1.40847e-06
-4.62784e-07
-1.31469e-06
-5.04913e-07
-1.21412e-06
-5.39528e-07
-1.10818e-06
-5.65856e-07
-9.98437e-07
-5.83211e-07
-8.86542e-07
-5.91016e-07
-7.74231e-07
-5.88836e-07
-6.63294e-07
-5.76399e-07
-5.55547e-07
-5.53637e-07
-4.52797e-07
-5.20719e-07
-3.56808e-07
-4.78092e-07
-2.69264e-07
-4.26526e-07
-1.91743e-07
-3.67166e-07
-1.25684e-07
-3.01584e-07
-7.23802e-08
-2.31841e-07
-3.29795e-08
-1.60532e-07
-8.51886e-09
-9.0827e-08
-2.67292e-08
-1.954e-06
-3.80873e-08
-1.93432e-06
-1.21401e-07
-1.90106e-06
-2.03411e-07
-1.85458e-06
-2.83016e-07
-1.79541e-06
-3.59105e-07
-1.72424e-06
-4.30562e-07
-1.64194e-06
-4.96282e-07
-1.54954e-06
-5.55177e-07
-1.44826e-06
-6.06197e-07
-1.33944e-06
-6.48345e-07
-1.2246e-06
-6.807e-07
-1.10537e-06
-7.02442e-07
-9.83503e-07
-7.1288e-07
-8.60857e-07
-7.11481e-07
-7.39349e-07
-6.97906e-07
-6.20941e-07
-6.72045e-07
-5.07603e-07
-6.34057e-07
-4.01283e-07
-5.84412e-07
-3.03872e-07
-5.23937e-07
-2.17177e-07
-4.53861e-07
-1.42897e-07
-3.75864e-07
-8.26123e-08
-2.92127e-07
-3.77877e-08
-2.05356e-07
-9.80066e-09
-1.18814e-07
-3.65299e-08
-2.12005e-06
-4.40858e-08
-2.09936e-06
-1.42088e-07
-2.06417e-06
-2.38602e-07
-2.01484e-06
-3.32353e-07
-1.95189e-06
-4.22055e-07
-1.87603e-06
-5.06416e-07
-1.78816e-06
-5.8415e-07
-1.68935e-06
-6.53993e-07
-1.58083e-06
-7.14719e-07
-1.46401e-06
-7.65163e-07
-1.34046e-06
-8.04244e-07
-1.21191e-06
-8.30992e-07
-1.08021e-06
-8.44585e-07
-9.47313e-07
-8.44378e-07
-8.15277e-07
-8.29942e-07
-6.86216e-07
-8.01107e-07
-5.62272e-07
-7.58e-07
-4.4559e-07
-7.01094e-07
-3.3828e-07
-6.31247e-07
-2.42394e-07
-5.49747e-07
-1.59901e-07
-4.58358e-07
-9.26726e-08
-3.59355e-07
-4.24869e-08
-2.55542e-07
-1.10426e-08
-1.50258e-07
-4.75726e-08
-2.28391e-06
-5.00485e-08
-2.26238e-06
-1.63619e-07
-2.22545e-06
-2.75527e-07
-2.17349e-06
-3.84321e-07
-2.10701e-06
-4.88535e-07
-2.02673e-06
-5.86694e-07
-1.93355e-06
-6.77326e-07
-1.82856e-06
-7.58981e-07
-1.71303e-06
-8.30248e-07
-1.58842e-06
-8.8978e-07
-1.45634e-06
-9.36319e-07
-1.3186e-06
-9.68733e-07
-1.17714e-06
-9.86047e-07
-1.03403e-06
-9.87484e-07
-8.91468e-07
-9.72506e-07
-7.51718e-07
-9.40856e-07
-6.1711e-07
-8.92609e-07
-4.89993e-07
-8.28211e-07
-3.72714e-07
-7.48526e-07
-2.67579e-07
-6.54881e-07
-1.76838e-07
-5.49099e-07
-1.02661e-07
-4.33532e-07
-4.71338e-08
-3.11069e-07
-1.22639e-08
-1.85128e-07
-5.98366e-08
-2.44609e-06
-5.58416e-08
-2.42388e-06
-1.85823e-07
-2.38543e-06
-3.13982e-07
-2.33106e-06
-4.38689e-07
-2.2613e-06
-5.58296e-07
-2.17685e-06
-6.71139e-07
-2.07863e-06
-7.75554e-07
-1.96771e-06
-8.69898e-07
-1.8454e-06
-9.52561e-07
-1.71317e-06
-1.022e-06
-1.57272e-06
-1.07677e-06
-1.4259e-06
-1.11556e-06
-1.27474e-06
-1.1372e-06
-1.12144e-06
-1.14079e-06
-9.68321e-07
-1.12563e-06
-8.17818e-07
-1.09136e-06
-6.72451e-07
-1.03798e-06
-5.34791e-07
-9.65871e-07
-4.07429e-07
-8.75889e-07
-2.92942e-07
-7.69368e-07
-1.93869e-07
-6.48171e-07
-1.12685e-07
-5.14716e-07
-5.17865e-08
-3.71968e-07
-1.3483e-08
-2.23432e-07
-7.33196e-08
-2.60684e-06
-6.13209e-08
-2.58415e-06
-2.08516e-07
-2.54438e-06
-3.53747e-07
-2.48786e-06
-4.95211e-07
-2.41509e-06
-6.31071e-07
-2.32675e-06
-7.59475e-07
-2.22374e-06
-8.78561e-07
-2.10716e-06
-9.86481e-07
-1.9783e-06
-1.08142e-06
-1.83868e-06
-1.16163e-06
-1.69001e-06
-1.22544e-06
-1.53422e-06
-1.27134e-06
-1.37343e-06
-1.29799e-06
-1.20994e-06
-1.30427e-06
-1.04623e-06
-1.28934e-06
-8.84885e-07
-1.2527e-06
-7.28639e-07
-1.19422e-06
-5.80291e-07
-1.11422e-06
-4.42691e-07
-1.01349e-06
-3.18699e-07
-8.9336e-07
-2.11157e-07
-7.55713e-07
-1.22854e-07
-6.03018e-07
-5.65028e-08
-4.38319e-07
-1.47177e-08
-2.65217e-07
-8.80374e-08
-2.76617e-06
-6.63316e-08
-2.74319e-06
-2.31496e-07
-2.70236e-06
-3.94584e-07
-2.64395e-06
-5.53613e-07
-2.56846e-06
-7.06565e-07
-2.47654e-06
-8.51394e-07
-2.36906e-06
-9.86038e-07
-2.24711e-06
-1.10843e-06
-2.11198e-06
-1.21655e-06
-1.96519e-06
-1.30841e-06
-1.8085e-06
-1.38213e-06
-1.64389e-06
-1.43596e-06
-1.47355e-06
-1.46833e-06
-1.2999e-06
-1.47792e-06
-1.12554e-06
-1.4637e-06
-9.5327e-07
-1.42497e-06
-7.86007e-07
-1.36148e-06
-6.26797e-07
-1.27343e-06
-4.78764e-07
-1.16152e-06
-3.45066e-07
-1.02706e-06
-2.28864e-07
-8.71916e-07
-1.33274e-07
-6.98608e-07
-6.13378e-08
-5.10256e-07
-1.59846e-08
-3.1057e-07
-1.04022e-07
-2.92382e-06
-7.07094e-08
-2.90077e-06
-2.54547e-07
-2.85913e-06
-4.36224e-07
-2.79915e-06
-6.13589e-07
-2.72127e-06
-7.84441e-07
-2.62613e-06
-9.46542e-07
-2.51454e-06
-1.09762e-06
-2.38757e-06
-1.23541e-06
-2.2465e-06
-1.35763e-06
-2.09284e-06
-1.46207e-06
-1.92838e-06
-1.5466e-06
-1.75512e-06
-1.60921e-06
-1.57536e-06
-1.6481e-06
-1.39159e-06
-1.66169e-06
-1.20658e-06
-1.64871e-06
-1.02329e-06
-1.60827e-06
-8.44864e-07
-1.53991e-06
-6.74597e-07
-1.4437e-06
-5.15901e-07
-1.32022e-06
-3.72252e-07
-1.17071e-06
-2.47146e-07
-9.97022e-07
-1.44048e-07
-8.01706e-07
-6.63444e-08
-5.8796e-07
-1.72991e-08
-3.59615e-07
-1.21321e-07
-3.07923e-06
-7.42817e-08
-3.05635e-06
-2.7743e-07
-3.0142e-06
-4.78372e-07
-2.953e-06
-6.7479e-07
-2.87313e-06
-8.6431e-07
-2.77517e-06
-1.0445e-06
-2.65991e-06
-1.21289e-06
-2.52835e-06
-1.36696e-06
-2.38175e-06
-1.50423e-06
-2.2216e-06
-1.62222e-06
-2.04968e-06
-1.71851e-06
-1.86804e-06
-1.79085e-06
-1.67903e-06
-1.83711e-06
-1.48525e-06
-1.85546e-06
-1.28961e-06
-1.84435e-06
-1.09523e-06
-1.80265e-06
-9.05489e-07
-1.72965e-06
-7.23956e-07
-1.62523e-06
-5.54341e-07
-1.48983e-06
-4.00455e-07
-1.32459e-06
-2.66153e-07
-1.13132e-06
-1.55273e-07
-9.12587e-07
-7.15727e-08
-6.7166e-07
-1.86762e-08
-4.12512e-07
-1.39997e-07
-3.23157e-06
-7.68707e-08
-3.20912e-06
-2.99886e-07
-3.1668e-06
-5.20691e-07
-3.10477e-06
-7.36816e-07
-3.02336e-06
-9.45716e-07
-2.92309e-06
-1.14477e-06
-2.80466e-06
-1.33131e-06
-2.66904e-06
-1.50259e-06
-2.5174e-06
-1.65587e-06
-2.35123e-06
-1.78839e-06
-2.17228e-06
-1.89746e-06
-1.98262e-06
-1.98051e-06
-1.78463e-06
-2.0351e-06
-1.58101e-06
-2.05908e-06
-1.37479e-06
-2.05057e-06
-1.1693e-06
-2.00814e-06
-9.68123e-07
-1.93082e-06
-7.75114e-07
-1.81824e-06
-5.94304e-07
-1.67065e-06
-4.29861e-07
-1.48903e-06
-2.86027e-07
-1.27516e-06
-1.67042e-07
-1.03157e-06
-7.70708e-08
-7.61631e-07
-2.01298e-08
-4.69452e-07
-1.60127e-07
-3.37968e-06
-7.82965e-08
-3.35793e-06
-3.21637e-07
-3.31581e-06
-5.62812e-07
-3.25341e-06
-7.99212e-07
-3.17099e-06
-1.02813e-06
-3.06898e-06
-1.24678e-06
-2.94802e-06
-1.45228e-06
-2.80896e-06
-1.64165e-06
-2.65293e-06
-1.8119e-06
-2.48133e-06
-1.95998e-06
-2.2959e-06
-2.0829e-06
-2.09867e-06
-2.17773e-06
-1.89208e-06
-2.2417e-06
-1.67889e-06
-2.27227e-06
-1.46225e-06
-2.26721e-06
-1.24566e-06
-2.22473e-06
-1.03296e-06
-2.14352e-06
-8.28279e-07
-2.02292e-06
-6.35988e-07
-1.86294e-06
-4.60642e-07
-1.66438e-06
-3.06902e-07
-1.4289e-06
-1.79446e-07
-1.15903e-06
-8.28853e-08
-8.58191e-07
-2.16736e-08
-5.30664e-07
-1.81801e-07
-3.52204e-06
-7.83817e-08
-3.50129e-06
-3.42383e-07
-3.45979e-06
-6.04319e-07
-3.39754e-06
-8.61457e-07
-3.31472e-06
-1.11095e-06
-3.21166e-06
-1.34984e-06
-3.0889e-06
-1.57504e-06
-2.94717e-06
-1.78337e-06
-2.78752e-06
-1.97155e-06
-2.61124e-06
-2.13625e-06
-2.42001e-06
-2.27413e-06
-2.21585e-06
-2.3819e-06
-2.00116e-06
-2.45639e-06
-1.77878e-06
-2.49464e-06
-1.55198e-06
-2.49402e-06
-1.32441e-06
-2.4523e-06
-1.10015e-06
-2.36778e-06
-8.83623e-07
-2.23944e-06
-6.79571e-07
-2.06699e-06
-4.92961e-07
-1.85099e-06
-3.28906e-07
-1.59295e-06
-1.9257e-07
-1.29536e-06
-8.90617e-08
-9.617e-07
-2.33212e-08
-5.96405e-07
-2.05122e-07
-3.65679e-06
-7.69572e-08
-3.63736e-06
-3.61811e-07
-3.59692e-06
-6.4476e-07
-3.53541e-06
-9.22968e-07
-3.45289e-06
-1.19347e-06
-3.34958e-06
-1.45315e-06
-3.22589e-06
-1.69874e-06
-3.08242e-06
-1.92684e-06
-2.92008e-06
-2.1339e-06
-2.74005e-06
-2.31628e-06
-2.54391e-06
-2.47028e-06
-2.33359e-06
-2.59222e-06
-2.11149e-06
-2.67848e-06
-1.88048e-06
-2.72566e-06
-1.64388e-06
-2.73061e-06
-1.40555e-06
-2.69063e-06
-1.16977e-06
-2.60356e-06
-9.41283e-07
-2.46793e-06
-7.2521e-07
-2.28306e-06
-5.26965e-07
-2.04924e-06
-3.52162e-07
-1.76776e-06
-2.06502e-07
-1.44102e-06
-9.5646e-08
-1.07256e-06
-2.50864e-08
-6.66964e-07
-2.30209e-07
-3.78164e-06
-7.38692e-08
-3.76386e-06
-3.79593e-07
-3.72498e-06
-6.83636e-07
-3.66486e-06
-9.83088e-07
-3.58344e-06
-1.27488e-06
-3.48081e-06
-1.55578e-06
-3.35721e-06
-1.82234e-06
-3.2131e-06
-2.07095e-06
-3.0492e-06
-2.2978e-06
-2.86655e-06
-2.49893e-06
-2.66658e-06
-2.67026e-06
-2.45111e-06
-2.80768e-06
-2.2225e-06
-2.9071e-06
-1.98357e-06
-2.96458e-06
-1.73775e-06
-2.97643e-06
-1.489e-06
-2.93939e-06
-1.24185e-06
-2.85071e-06
-1.00135e-06
-2.70842e-06
-7.73037e-07
-2.51138e-06
-5.62795e-07
-2.25948e-06
-3.76793e-07
-1.95376e-06
-2.21328e-07
-1.59649e-06
-1.02685e-07
-1.1912e-06
-2.69834e-08
-7.42666e-07
-2.57192e-07
-3.89389e-06
-6.89879e-08
-3.87809e-06
-3.95395e-07
-3.84131e-06
-7.20413e-07
-3.78331e-06
-1.04109e-06
-3.7039e-06
-1.35429e-06
-3.60301e-06
-1.65667e-06
-3.48069e-06
-1.94466e-06
-3.33722e-06
-2.21442e-06
-3.17311e-06
-2.46191e-06
-2.98921e-06
-2.68283e-06
-2.78673e-06
-2.87273e-06
-2.56738e-06
-3.02703e-06
-2.33337e-06
-3.14111e-06
-2.0875e-06
-3.21045e-06
-1.83321e-06
-3.23073e-06
-1.57457e-06
-3.19802e-06
-1.31634e-06
-3.10895e-06
-1.06389e-06
-2.96087e-06
-8.23162e-07
-2.7521e-06
-6.00581e-07
-2.48206e-06
-4.02916e-07
-2.15142e-06
-2.37136e-07
-1.76227e-06
-1.10228e-07
-1.31811e-06
-2.90277e-08
-8.23867e-07
-2.8622e-07
-3.99038e-06
-6.22162e-08
-3.97689e-06
-4.08882e-07
-3.94278e-06
-7.54521e-07
-3.8877e-06
-1.09618e-06
-3.81131e-06
-1.43068e-06
-3.71336e-06
-1.75463e-06
-3.5937e-06
-2.06431e-06
-3.45237e-06
-2.35575e-06
-3.28964e-06
-2.62464e-06
-3.1061e-06
-2.86637e-06
-2.90275e-06
-3.07609e-06
-2.68105e-06
-3.24872e-06
-2.44307e-06
-3.3791e-06
-2.19149e-06
-3.46202e-06
-1.92974e-06
-3.49249e-06
-1.66197e-06
-3.46579e-06
-1.39312e-06
-3.37779e-06
-1.12889e-06
-3.2251e-06
-8.75672e-07
-3.00532e-06
-6.40446e-07
-2.71728e-06
-4.30656e-07
-2.36121e-06
-2.5402e-07
-1.9389e-06
-1.1833e-07
-1.4538e-06
-3.12362e-08
-9.1096e-07
-3.17456e-07
-4.06743e-06
-5.35013e-08
-4.05659e-06
-4.19727e-07
-4.02575e-06
-7.85358e-07
-3.97445e-06
-1.14748e-06
-3.9022e-06
-1.50293e-06
-3.80854e-06
-1.84828e-06
-3.69311e-06
-2.17975e-06
-3.55565e-06
-2.49321e-06
-3.39615e-06
-2.78413e-06
-3.2149e-06
-3.04762e-06
-3.0126e-06
-3.27839e-06
-2.79044e-06
-3.47088e-06
-2.55024e-06
-3.6193e-06
-2.29453e-06
-3.71774e-06
-2.02663e-06
-3.76039e-06
-1.75074e-06
-3.74168e-06
-1.47197e-06
-3.65656e-06
-1.19631e-06
-3.50075e-06
-9.30628e-07
-3.27101e-06
-6.8251e-07
-2.9654e-06
-4.60141e-07
-2.58358e-06
-2.72085e-07
-2.12696e-06
-1.2705e-07
-1.59883e-06
-3.36283e-08
-1.00438e-06
-3.51084e-07
-4.12087e-06
-4.2845e-08
-4.11298e-06
-4.27623e-07
-4.08603e-06
-8.12305e-07
-4.03944e-06
-1.19407e-06
-3.97256e-06
-1.56981e-06
-3.88471e-06
-1.93613e-06
-3.77525e-06
-2.28921e-06
-3.64363e-06
-2.62483e-06
-3.48951e-06
-2.93826e-06
-3.3128e-06
-3.22432e-06
-3.11384e-06
-3.47735e-06
-2.89348e-06
-3.69125e-06
-2.6532e-06
-3.85957e-06
-2.3953e-06
-3.97565e-06
-2.12294e-06
-4.03275e-06
-1.84028e-06
-4.02434e-06
-1.55255e-06
-3.94429e-06
-1.26604e-06
-3.78727e-06
-9.88068e-07
-3.54898e-06
-7.2689e-07
-3.22658e-06
-4.91508e-07
-2.81896e-06
-2.91445e-07
-2.32702e-06
-1.36457e-07
-1.75382e-06
-3.62264e-08
-1.10461e-06
-3.87311e-07
-4.14596e-06
-3.03165e-08
-4.1413e-06
-4.32289e-07
-4.11887e-06
-8.34731e-07
-4.07798e-06
-1.23496e-06
-4.01779e-06
-1.63e-06
-3.93739e-06
-2.01652e-06
-3.83586e-06
-2.39074e-06
-3.71231e-06
-2.74837e-06
-3.56601e-06
-3.08457e-06
-3.39644e-06
-3.39388e-06
-3.20351e-06
-3.67028e-06
-2.98763e-06
-3.90713e-06
-2.74987e-06
-4.09732e-06
-2.49218e-06
-4.23334e-06
-2.21747e-06
-4.30746e-06
-1.92979e-06
-4.31202e-06
-1.63441e-06
-4.23967e-06
-1.33788e-06
-4.0838e-06
-1.048e-06
-3.83886e-06
-7.73703e-07
-3.50087e-06
-5.24914e-07
-3.06775e-06
-3.12235e-07
-2.5397e-06
-1.46634e-07
-1.91942e-06
-3.90576e-08
-1.21219e-06
-4.26368e-07
-4.1374e-06
-1.6063e-08
-4.1362e-06
-4.33492e-07
-4.11892e-06
-8.5201e-07
-4.08474e-06
-1.26914e-06
-4.03265e-06
-1.68209e-06
-3.9615e-06
-2.08767e-06
-3.87006e-06
-2.48219e-06
-3.75705e-06
-2.86138e-06
-3.62131e-06
-3.2203e-06
-3.46187e-06
-3.55333e-06
-3.27808e-06
-3.85407e-06
-3.06983e-06
-4.11538e-06
-2.8377e-06
-4.32946e-06
-2.58314e-06
-4.4879e-06
-2.30871e-06
-4.58189e-06
-2.01823e-06
-4.6025e-06
-1.71693e-06
-4.54096e-06
-1.41157e-06
-4.38916e-06
-1.11039e-06
-4.14004e-06
-8.2307e-07
-3.78819e-06
-5.60534e-07
-3.33029e-06
-3.34615e-07
-2.76562e-06
-1.57679e-07
-2.09636e-06
-4.21548e-08
-1.32771e-06
-4.68523e-07
-4.08929e-06
-3.20457e-10
-4.09173e-06
-4.31052e-07
-4.0802e-06
-8.63537e-07
-4.05378e-06
-1.29557e-06
-4.01127e-06
-1.7246e-06
-3.95127e-06
-2.14766e-06
-3.87224e-06
-2.56123e-06
-3.7725e-06
-2.96112e-06
-3.6504e-06
-3.3424e-06
-3.50443e-06
-3.6993e-06
-3.33336e-06
-4.02514e-06
-3.13643e-06
-4.31232e-06
-2.91357e-06
-4.55231e-06
-2.66566e-06
-4.73581e-06
-2.39474e-06
-4.85282e-06
-2.10426e-06
-4.89298e-06
-1.7993e-06
-4.84592e-06
-1.48671e-06
-4.70175e-06
-1.17517e-06
-4.45159e-06
-8.75118e-07
-4.08824e-06
-5.98575e-07
-3.60683e-06
-3.58778e-07
-3.00542e-06
-1.69715e-07
-2.28542e-06
-4.55595e-08
-1.45187e-06
-5.14082e-07
-3.99515e-06
1.65784e-08
-4.00134e-06
-4.24861e-07
-3.99613e-06
-8.68748e-07
-3.97849e-06
-1.31321e-06
-3.94707e-06
-1.75602e-06
-3.90024e-06
-2.1945e-06
-3.83609e-06
-2.62538e-06
-3.75255e-06
-3.04465e-06
-3.64747e-06
-3.44748e-06
-3.51872e-06
-3.82804e-06
-3.36441e-06
-4.17946e-06
-3.18302e-06
-4.4937e-06
-2.97374e-06
-4.76159e-06
-2.73668e-06
-4.97287e-06
-2.47319e-06
-5.1163e-06
-2.18619e-06
-5.17998e-06
-1.88044e-06
-5.15167e-06
-1.56277e-06
-5.01942e-06
-1.24221e-06
-4.77215e-06
-9.29979e-07
-4.40047e-06
-6.39285e-07
-3.89753e-06
-3.84963e-07
-3.25974e-06
-1.82896e-07
-2.48749e-06
-4.93242e-08
-1.58544e-06
-5.63407e-07
-3.84792e-06
3.41995e-08
-3.85789e-06
-4.14896e-07
-3.85949e-06
-8.67143e-07
-3.85164e-06
-1.32106e-06
-3.83283e-06
-1.77483e-06
-3.80119e-06
-2.22614e-06
-3.75451e-06
-2.67205e-06
-3.69031e-06
-3.10886e-06
-3.60588e-06
-3.53191e-06
-3.49847e-06
-3.93545e-06
-3.36542e-06
-4.3125e-06
-3.2044e-06
-4.65472e-06
-3.01367e-06
-4.95233e-06
-2.7924e-06
-5.19414e-06
-2.54108e-06
-5.36763e-06
-2.26185e-06
-5.4592e-06
-1.95896e-06
-5.45457e-06
-1.63902e-06
-5.33936e-06
-1.31131e-06
-5.09986e-06
-9.87788e-07
-4.724e-06
-6.82963e-07
-4.20235e-06
-4.1347e-07
-3.52923e-06
-1.97419e-07
-2.70354e-06
-5.35168e-08
-1.72934e-06
-6.16923e-07
-3.63999e-06
5.20084e-08
-3.65365e-06
-4.01228e-07
-3.66249e-06
-8.58309e-07
-3.66534e-06
-1.31821e-06
-3.6606e-06
-1.77957e-06
-3.6462e-06
-2.24054e-06
-3.61963e-06
-2.69862e-06
-3.578e-06
-3.1505e-06
-3.51807e-06
-3.59183e-06
-3.43644e-06
-4.01709e-06
-3.32963e-06
-4.41931e-06
-3.19437e-06
-4.78998e-06
-3.02786e-06
-5.11883e-06
-2.82818e-06
-5.39382e-06
-2.59467e-06
-5.60114e-06
-2.32847e-06
-5.7254e-06
-2.033e-06
-5.75004e-06
-1.71445e-06
-5.65791e-06
-1.38213e-06
-5.43218e-06
-1.04868e-06
-5.05744e-06
-7.29969e-07
-4.52106e-06
-4.44681e-07
-3.81452e-06
-2.13539e-07
-2.93468e-06
-5.82268e-08
-1.88465e-06
-6.7515e-07
-3.36321e-06
6.93781e-08
-3.38041e-06
-3.84036e-07
-3.39677e-06
-8.41947e-07
-3.41114e-06
-1.30384e-06
-3.42183e-06
-1.76888e-06
-3.42662e-06
-2.23575e-06
-3.42275e-06
-2.70249e-06
-3.40697e-06
-3.16628e-06
-3.37553e-06
-3.62327e-06
-3.32436e-06
-4.06826e-06
-3.24915e-06
-4.49453e-06
-3.1456e-06
-4.89353e-06
-3.00974e-06
-5.25469e-06
-2.83831e-06
-5.56525e-06
-2.62929e-06
-5.81016e-06
-2.38248e-06
-5.97222e-06
-2.10013e-06
-6.03238e-06
-1.78766e-06
-5.97038e-06
-1.45415e-06
-5.76569e-06
-1.11276e-06
-5.39884e-06
-7.80742e-07
-4.85308e-06
-4.79082e-07
-4.11618e-06
-2.31592e-07
-3.18217e-06
-6.35728e-08
-2.05267e-06
-7.38723e-07
-3.00904e-06
8.56054e-08
-3.02947e-06
-3.63605e-07
-3.05352e-06
-8.17898e-07
-3.08005e-06
-1.27731e-06
-3.10736e-06
-1.74157e-06
-3.13312e-06
-2.20998e-06
-3.15441e-06
-2.68119e-06
-3.16766e-06
-3.15303e-06
-3.16869e-06
-3.62223e-06
-3.1528e-06
-4.08416e-06
-3.11483e-06
-4.53249e-06
-3.04944e-06
-4.95892e-06
-2.95134e-06
-5.35279e-06
-2.81578e-06
-5.70081e-06
-2.63906e-06
-5.98688e-06
-2.41927e-06
-6.192e-06
-2.15711e-06
-6.29454e-06
-1.85673e-06
-6.27076e-06
-1.52658e-06
-6.09584e-06
-1.18007e-06
-5.74535e-06
-8.358e-07
-5.19735e-06
-5.17295e-07
-4.43469e-06
-2.5202e-07
-3.44745e-06
-6.97159e-08
-2.23498e-06
-8.08439e-07
-2.56855e-06
9.99383e-08
-2.59183e-06
-3.40328e-07
-2.62356e-06
-7.86169e-07
-2.66268e-06
-1.23819e-06
-2.70753e-06
-1.69672e-06
-2.75578e-06
-2.16173e-06
-2.8044e-06
-2.63257e-06
-2.84963e-06
-3.10781e-06
-2.88694e-06
-3.58492e-06
-2.91109e-06
-4.06001e-06
-2.91615e-06
-4.52744e-06
-2.8957e-06
-4.97937e-06
-2.8431e-06
-5.40539e-06
-2.75192e-06
-5.792e-06
-2.61652e-06
-6.12228e-06
-2.43286e-06
-6.37565e-06
-2.19955e-06
-6.52786e-06
-1.9189e-06
-6.55142e-06
-1.59815e-06
-6.41658e-06
-1.25052e-06
-6.09299e-06
-8.95747e-07
-5.55211e-06
-5.60122e-07
-4.77031e-06
-2.75418e-07
-3.73215e-06
-7.68768e-08
-2.43352e-06
-8.85315e-07
-2.03266e-06
1.11615e-07
-2.05829e-06
-3.14697e-07
-2.09751e-06
-7.46952e-07
-2.14938e-06
-1.18632e-06
-2.21235e-06
-1.63376e-06
-2.28417e-06
-2.08991e-06
-2.36186e-06
-2.55489e-06
-2.44157e-06
-3.02809e-06
-2.5186e-06
-3.50789e-06
-2.58727e-06
-3.99134e-06
-2.64102e-06
-4.47369e-06
-2.67245e-06
-4.94795e-06
-2.67354e-06
-5.40429e-06
-2.63607e-06
-5.82946e-06
-2.55222e-06
-6.20614e-06
-2.4154e-06
-6.51247e-06
-2.22149e-06
-6.72177e-06
-1.97024e-06
-6.80266e-06
-1.66689e-06
-6.71993e-06
-1.32372e-06
-6.43616e-06
-9.61242e-07
-5.91459e-06
-6.08587e-07
-5.12297e-06
-3.02592e-07
-4.03814e-06
-8.53648e-08
-2.65075e-06
-9.7068e-07
-1.39224e-06
1.19916e-07
-1.41965e-06
-2.87283e-07
-1.46596e-06
-7.00645e-07
-1.5304e-06
-1.12187e-06
-1.61162e-06
-1.55254e-06
-1.70757e-06
-1.99396e-06
-1.81543e-06
-2.44703e-06
-1.93147e-06
-2.91205e-06
-2.05096e-06
-3.3884e-06
-2.16805e-06
-3.87424e-06
-2.27572e-06
-4.36602e-06
-2.36575e-06
-4.85792e-06
-2.42888e-06
-5.34116e-06
-2.45509e-06
-5.80326e-06
-2.43414e-06
-6.22708e-06
-2.35654e-06
-6.59007e-06
-2.21477e-06
-6.86354e-06
-2.00509e-06
-7.01234e-06
-1.72965e-06
-6.99537e-06
-1.39876e-06
-6.76705e-06
-1.03293e-06
-6.28042e-06
-6.63993e-07
-5.4919e-06
-3.34641e-07
-4.3675e-06
-9.56218e-08
-2.88977e-06
-1.0663e-06
-6.38332e-07
1.24226e-07
-6.66905e-07
-2.58709e-07
-7.1969e-07
-6.4786e-07
-7.96155e-07
-1.04541e-06
-8.95218e-07
-1.45348e-06
-1.01515e-06
-1.87402e-06
-1.15346e-06
-2.30872e-06
-1.30672e-06
-2.75878e-06
-1.47044e-06
-3.22468e-06
-1.63885e-06
-3.70583e-06
-1.80478e-06
-4.20009e-06
-1.95949e-06
-4.7032e-06
-2.09272e-06
-5.20794e-06
-2.19277e-06
-5.7032e-06
-2.247e-06
-6.17285e-06
-2.24263e-06
-6.59445e-06
-2.1681e-06
-6.93806e-06
-2.01515e-06
-7.1653e-06
-1.78142e-06
-7.2291e-06
-1.47373e-06
-7.07474e-06
-1.11125e-06
-6.6429e-06
-7.27958e-07
-5.87519e-06
-3.73089e-07
-4.72236e-06
-1.08295e-07
-3.15456e-06
-1.1746e-06
2.37527e-07
1.24103e-07
2.08435e-07
-2.29617e-07
1.50003e-07
-5.89428e-07
6.24941e-08
-9.579e-07
-5.3365e-08
-1.33762e-06
-1.96281e-07
-1.73111e-06
-3.64252e-07
-2.14075e-06
-5.54394e-07
-2.56864e-06
-7.6272e-07
-3.01636e-06
-9.83901e-07
-3.48465e-06
-1.211e-06
-3.973e-06
-1.4352e-06
-4.479e-06
-1.64563e-06
-4.9975e-06
-1.82932e-06
-5.51952e-06
-1.97136e-06
-6.03081e-06
-2.0556e-06
-6.51022e-06
-2.06588e-06
-6.92777e-06
-1.98828e-06
-7.2429e-06
-1.81425e-06
-7.40312e-06
-1.54496e-06
-7.34404e-06
-1.1961e-06
-6.99176e-06
-8.02414e-07
-6.26888e-06
-4.20054e-07
-5.10472e-06
-1.24359e-07
-3.45025e-06
-1.29896e-06
1.24306e-06
1.19359e-07
1.21407e-06
-2.00622e-07
1.15103e-06
-5.26389e-07
1.05391e-06
-8.60784e-07
9.23025e-07
-1.20673e-06
7.59116e-07
-1.5672e-06
5.6353e-07
-1.94517e-06
3.38395e-07
-2.34351e-06
8.6876e-08
-2.76484e-06
-1.86519e-07
-3.21125e-06
-4.75576e-07
-3.68394e-06
-7.71979e-07
-4.1826e-06
-1.0649e-06
-4.70458e-06
-1.34068e-06
-5.24374e-06
-1.58268e-06
-5.7888e-06
-1.77161e-06
-6.32129e-06
-1.88646e-06
-6.81293e-06
-1.90662e-06
-7.22274e-06
-1.81543e-06
-7.4943e-06
-1.60557e-06
-7.5539e-06
-1.28598e-06
-7.31135e-06
-8.89457e-07
-6.6654e-06
-4.78493e-07
-5.51569e-06
-1.45329e-07
-3.78342e-06
-1.44428e-06
2.38487e-06
1.10124e-07
2.35652e-06
-1.72272e-07
2.29012e-06
-4.59983e-07
2.18531e-06
-7.55978e-07
2.04194e-06
-1.06336e-06
1.86015e-06
-1.3854e-06
1.64046e-06
-1.72548e-06
1.38406e-06
-2.0871e-06
1.09298e-06
-2.47376e-06
7.70504e-07
-2.88878e-06
4.21566e-07
-3.33501e-06
5.32997e-08
-3.81433e-06
-3.24356e-07
-4.32692e-06
-6.98009e-07
-4.87009e-06
-1.05025e-06
-5.43656e-06
-1.35941e-06
-6.01213e-06
-1.59992e-06
-6.57242e-06
-1.74392e-06
-7.07875e-06
-1.76474e-06
-7.47349e-06
-1.64311e-06
-7.67553e-06
-1.37648e-06
-7.57798e-06
-9.90841e-07
-7.05104e-06
-5.52489e-07
-5.95404e-06
-1.73627e-07
-4.16228e-06
-1.61791e-06
3.66805e-06
9.6908e-08
3.64079e-06
-1.45008e-07
3.57243e-06
-3.91625e-07
3.46233e-06
-6.45878e-07
3.30986e-06
-9.10889e-07
3.11446e-06
-1.19e-06
2.87581e-06
-1.48683e-06
2.59394e-06
-1.80524e-06
2.26955e-06
-2.14937e-06
1.90428e-06
-2.52351e-06
1.50124e-06
-2.93197e-06
1.06562e-06
-3.37871e-06
6.05453e-07
-3.86676e-06
1.3259e-07
-4.39722e-06
-3.36259e-07
-4.96771e-06
-7.78544e-07
-5.56985e-06
-1.16533e-06
-6.18563e-06
-1.46185e-06
-6.78223e-06
-1.63016e-06
-7.30518e-06
-1.63539e-06
-7.67029e-06
-1.45714e-06
-7.75623e-06
-1.10657e-06
-7.40161e-06
-6.47436e-07
-6.41317e-06
-2.13215e-07
-4.5965e-06
-1.83113e-06
5.09577e-06
8.06194e-08
5.06991e-06
-1.19143e-07
5.00117e-06
-3.22885e-07
4.88864e-06
-5.33348e-07
4.73124e-06
-7.53485e-07
4.52775e-06
-9.86521e-07
4.27695e-06
-1.23603e-06
3.97768e-06
-1.50597e-06
3.6291e-06
-1.80079e-06
3.23097e-06
-2.12538e-06
2.78409e-06
-2.48509e-06
2.29096e-06
-2.88558e-06
1.75663e-06
-3.33243e-06
1.1899e-06
-3.83049e-06
6.04816e-07
-4.38262e-06
2.24252e-08
-4.98746e-06
-5.27443e-07
-5.63576e-06
-1.00505e-06
-6.30462e-06
-1.36151e-06
-6.94873e-06
-1.54352e-06
-7.48828e-06
-1.50538e-06
-7.79437e-06
-1.23138e-06
-7.67562e-06
-7.69634e-07
-6.87492e-06
-2.70615e-07
-5.09552e-06
-2.10174e-06
6.66886e-06
6.25505e-08
6.64458e-06
-9.48642e-08
6.57717e-06
-2.55474e-07
6.46551e-06
-4.21682e-07
6.30812e-06
-5.961e-07
6.10323e-06
-7.8163e-07
5.84876e-06
-9.81553e-07
5.54241e-06
-1.19962e-06
5.18181e-06
-1.44019e-06
4.76471e-06
-1.70828e-06
4.28934e-06
-2.00972e-06
3.75493e-06
-2.35117e-06
3.16261e-06
-2.7401e-06
2.51657e-06
-3.18445e-06
1.82589e-06
-3.69194e-06
1.10696e-06
-4.26852e-06
3.86495e-07
-4.9153e-06
-2.95099e-07
-5.62303e-06
-8.81309e-07
-6.36252e-06
-1.30047e-06
-7.06912e-06
-1.47505e-06
-7.61979e-06
-1.34653e-06
-7.80414e-06
-9.23759e-07
-7.29769e-06
-3.5628e-07
-5.663e-06
-2.45802e-06
8.38539e-06
4.42944e-08
8.3628e-06
-7.22762e-08
8.29857e-06
-1.91247e-07
8.19145e-06
-3.14566e-07
8.03972e-06
-4.44367e-07
7.84115e-06
-5.83056e-07
7.593e-06
-7.33401e-07
7.29202e-06
-8.98649e-07
6.9345e-06
-1.08266e-06
6.51631e-06
-1.29009e-06
6.03313e-06
-1.52654e-06
5.48078e-06
-1.79883e-06
4.85587e-06
-2.11519e-06
4.15679e-06
-2.48537e-06
3.38547e-06
-2.92063e-06
2.55006e-06
-3.43311e-06
1.66887e-06
-4.03411e-06
7.7585e-07
-4.73e-06
-7.28612e-08
-5.51381e-06
-7.93377e-07
-6.3486e-06
-1.27522e-06
-7.13794e-06
-1.40104e-06
-7.67832e-06
-1.10344e-06
-7.59528e-06
-4.84954e-07
-6.28149e-06
-2.94297e-06
1.02403e-05
2.75872e-08
1.02195e-05
-5.1496e-08
1.01605e-05
-1.32227e-07
1.0062e-05
-2.16031e-07
9.92208e-06
-3.04482e-07
9.7384e-06
-3.99373e-07
9.5078e-06
-5.02799e-07
9.22642e-06
-6.17269e-07
8.88959e-06
-7.45835e-07
8.49178e-06
-8.92279e-07
8.02659e-06
-1.06134e-06
7.48679e-06
-1.25903e-06
6.86462e-06
-1.49301e-06
6.15233e-06
-1.77308e-06
5.34339e-06
-2.11169e-06
4.4347e-06
-2.52443e-06
3.43055e-06
-3.02995e-06
2.34915e-06
-3.64861e-06
1.23282e-06
-4.39747e-06
1.61614e-07
-5.2774e-06
-7.33444e-07
-6.24288e-06
-1.27078e-06
-7.14099e-06
-1.26165e-06
-7.60441e-06
-6.68226e-07
-6.87492e-06
-3.6112e-06
1.22252e-05
1.40649e-08
1.22065e-05
-3.28115e-08
1.2155e-05
-8.06763e-08
1.20694e-05
-1.30429e-07
1.1948e-05
-1.83068e-07
1.17883e-05
-2.39743e-07
1.15873e-05
-3.01813e-07
1.1341e-05
-3.7093e-07
1.10443e-05
-4.49148e-07
1.06911e-05