/*--------------------------------*- C++ -*----------------------------------*\
| =========                 |                                                 |
| \\      /  F ield         | OpenFOAM: The Open Source CFD Toolbox           |
|  \\    /   O peration     | Version:  v2012                                 |
|   \\  /    A nd           | Website:  www.openfoam.com                      |
|    \\/     M anipulation  |                                                 |
\*---------------------------------------------------------------------------*/
FoamFile
{
    version     2.0;
    format      ascii;
    class       volScalarField;
    location    "0.5";
    object      p;
}
// * * * * * * * * * * * * * * * * * * * * * * * * * * * * * * * * * * * * * //

dimensions      [0 2 -2 0 0 0 0];


internalField   nonuniform List<scalar> 
1250
(
0.0372149
0.0438312
0.0503297
0.0566203
0.0626147
0.0682268
0.0733747
0.0779821
0.0819797
0.0853071
0.0879145
0.089765
0.0908363
0.0911232
0.0906399
0.0894227
0.0875337
0.0850638
0.082138
0.0789213
0.0756246
0.0725117
0.06991
0.0682264
0.0677186
0.0369157
0.0428935
0.0487643
0.0544471
0.0598629
0.0649351
0.069591
0.0737635
0.0773923
0.0804257
0.0828219
0.0845513
0.0855978
0.0859612
0.085659
0.0847287
0.08323
0.0812477
0.0788943
0.0763128
0.0736787
0.0711992
0.0691139
0.0677147
0.0672112
0.0366767
0.0421784
0.0475821
0.0528138
0.0578012
0.0624747
0.0667683
0.0706215
0.0739803
0.0767985
0.0790398
0.0806789
0.0817031
0.0821144
0.0819307
0.0811877
0.0799406
0.0782655
0.076261
0.074049
0.0717741
0.0696023
0.0677177
0.0663126
0.0655311
0.0364726
0.0416141
0.0466654
0.0515578
0.0562241
0.0605997
0.0646237
0.0682398
0.0713984
0.0740571
0.0761824
0.0777515
0.0787529
0.0791886
0.0790748
0.0784437
0.077344
0.0758421
0.0740225
0.0719871
0.0698541
0.0677589
0.0658466
0.0642114
0.0629148
0.0362734
0.0411171
0.045878
0.0504916
0.054895
0.0590277
0.0628322
0.0662561
0.0692525
0.0717815
0.0738116
0.0753207
0.0762976
0.0767428
0.0766699
0.0761062
0.0750932
0.0736872
0.0719587
0.069991
0.0678786
0.0657318
0.063664
0.0616719
0.0597286
0.0360707
0.0406775
0.0452081
0.0496018
0.0537989
0.0577418
0.0613759
0.064651
0.0675222
0.069951
0.0719066
0.0733668
0.0743193
0.0747625
0.0747062
0.0741724
0.073195
0.0718205
0.0701064
0.0681192
0.0659331
0.0636385
0.0613243
0.0588965
0.0562489
0.0358555
0.0402858
0.0446462
0.0488786
0.0529257
0.0567319
0.0602445
0.0634147
0.0661983
0.0685573
0.0704606
0.071885
0.0728162
0.0732496
0.0731909
0.0726562
0.0716722
0.0702759
0.0685133
0.0664366
0.064103
0.0615881
0.0589633
0.0560539
0.0526857
0.035616
0.0399274
0.0441746
0.0483015
0.0522523
0.0559727
0.059411
0.0625187
0.0652518
0.0675716
0.0694459
0.0708496
0.071766
0.0721868
0.0721131
0.0715553
0.070533
0.0690746
0.067216
0.0649973
0.0624622
0.059676
0.0566982
0.0532833
0.0491991
0.0353397
0.0395872
0.0437761
0.0478512
0.0517577
0.0554418
0.0588519
0.0619392
0.064659
0.0669711
0.0688415
0.0702428
0.0711547
0.0715652
0.0714705
0.0708754
0.0697927
0.0682431
0.0662539
0.0638553
0.0610805
0.0579878
0.0546297
0.0506982
0.0459108
0.035013
0.0392504
0.0434345
0.0475105
0.0514239
0.0551207
0.0585488
0.0616583
0.0644029
0.0667408
0.068635
0.0700551
0.0709773
0.0713851
0.0712698
0.0706306
0.069474
0.0678139
0.0656702
0.0630651
0.0600237
0.0566005
0.0528444
0.0483914
0.0429146
0.0346215
0.0389015
0.0431335
0.0472628
0.0512342
0.0549931
0.0584859
0.0616614
0.064471
0.0668702
0.068819
0.0702832
0.0712349
0.071653
0.0715236
0.0708404
0.0696042
0.0678226
0.0655093
0.0626801
0.0593539
0.0555839
0.0514179
0.0464408
0.0402845
0.0341492
0.0385244
0.0428571
0.047092
0.051173
0.055044
0.0586499
0.0619369
0.0648538
0.0673529
0.0693905
0.0709282
0.0719335
0.0723802
0.0722494
0.0715291
0.0702146
0.0683079
0.0658173
0.0627534
0.0591307
0.0550026
0.050418
0.0449135
0.0380823
0.033579
0.0381021
0.0425886
0.0469821
0.0512252
0.05526
0.0590289
0.0624753
0.0655448
0.0681858
0.0703505
0.0719956
0.0730836
0.073583
0.0734694
0.0727252
0.0713402
0.0693113
0.0666421
0.0633387
0.0594125
0.0549183
0.0499077
0.0438705
0.0363623
0.0328924
0.0376165
0.0423107
0.046917
0.0513763
0.0556282
0.0596124
0.0632691
0.0665399
0.0693687
0.071703
0.0734944
0.0746996
0.0752815
0.0752098
0.0744611
0.0730196
0.0708775
0.0680338
0.064491
0.0602578
0.0553918
0.0499481
0.0433699
0.0351754
0.0320692
0.0370486
0.0420054
0.0468802
0.0516115
0.0561363
0.0603911
0.064312
0.0678365
0.0709035
0.073455
0.0754367
0.0767995
0.0774997
0.0775007
0.0767732
0.0752956
0.0730549
0.0700459
0.0662679
0.0617274
0.056485
0.0506005
0.0434698
0.0345728
0.0310879
0.0363778
0.0416539
0.0468546
0.051916
0.0567721
0.0613557
0.0655988
0.0694337
0.072794
0.0756155
0.0778377
0.0794044
0.0802652
0.0803765
0.0797022
0.0782149
0.075896
0.072736
0.0687308
0.0638851
0.0582631
0.0519293
0.0442308
0.0346082
0.0299256
0.0355828
0.0412363
0.0468224
0.0522744
0.0575232
0.0624975
0.0671246
0.0713314
0.0750455
0.0781959
0.0807148
0.0825386
0.0836091
0.0838751
0.0832932
0.081829
0.0794583
0.0761667
0.0719464
0.0668001
0.060796
0.0540033
0.0457185
0.0353405
0.0285585
0.034641
0.0407318
0.0467649
0.0526709
0.058377
0.0638077
0.0688852
0.0735305
0.0776645
0.0812089
0.0840878
0.0862291
0.0875661
0.0880389
0.0875959
0.0861949
0.083805
0.0804065
0.0759875
0.070548
0.0641602
0.0568985
0.0480052
0.0368357
0.026962
0.0335294
0.0401192
0.0466632
0.0530891
0.0593205
0.0652772
0.0708762
0.0760322
0.0806585
0.0846689
0.0879785
0.0905059
0.0921745
0.0929146
0.0926651
0.0913751
0.0890059
0.0855315
0.0809346
0.0752125
0.068441
0.0606994
0.0511725
0.0391692
0.0251114
0.0322246
0.0393768
0.0464977
0.0535122
0.0603402
0.066897
0.0730936
0.078838
0.0840358
0.0885916
0.0924109
0.0954015
0.097476
0.0985533
0.0985614
0.0974392
0.0951386
0.0916259
0.0868778
0.0808874
0.0737338
0.0655014
0.0553127
0.0424274
0.0229825
0.0307036
0.038483
0.0462489
0.0539233
0.0614227
0.0686575
0.075533
0.0819499
0.0878052
0.092994
0.0974108
0.100952
0.103516
0.105011
0.105351
0.104464
0.102289
0.098784
0.0939178
0.0876781
0.0801468
0.0714128
0.0605314
0.0467097
0.0205526
0.0289445
0.0374173
0.0458978
0.0543058
0.0625544
0.0705494
0.0781901
0.0853697
0.0919762
0.097894
0.103006
0.107194
0.110345
0.11235
0.113109
0.112534
0.110553
0.107111
0.102168
0.0957039
0.0878026
0.078557
0.0669498
0.0521313
0.0178016
0.0269277
0.0361607
0.0454267
0.054644
0.0637224
0.0725635
0.0810608
0.0890996
0.0965585
0.103311
0.109225
0.114171
0.118016
0.120636
0.121913
0.121743
0.120037
0.116726
0.111756
0.1051
0.096841
0.0870754
0.0747069
0.0588249
0.0147136
0.0246369
0.0346971
0.0448203
0.0549236
0.0649147
0.0746914
0.0841412
0.093142
0.101562
0.109264
0.1161
0.121924
0.126587
0.129943
0.131855
0.132197
0.130862
0.127762
0.122828
0.116021
0.107422
0.0971304
0.083963
0.0669441
0.0112782
0.0220609
0.0330145
0.0440661
0.055133
0.0661213
0.0769256
0.0874283
0.0974998
0.106999
0.115773
0.123663
0.130501
0.136119
0.140349
0.143029
0.14401
0.143159
0.140368
0.135547
0.128641
0.119729
0.108909
0.0949033
0.0766664
0.00749285
0.019195
0.0311065
0.0431567
0.055264
0.0673345
0.0792604
0.0909198
0.102176
0.112878
0.12286
0.131947
0.139951
0.14668
0.151941
0.155544
0.15731
0.157079
0.154714
0.150101
0.143163
0.133972
0.122626
0.107742
0.0881971
0.0033644
0.0160432
0.028974
0.0420903
0.0553133
0.0685501
0.0816922
0.0946147
0.107175
0.119211
0.130546
0.140986
0.150322
0.158337
0.164808
0.169513
0.172238
0.172788
0.170991
0.166702
0.159816
0.150396
0.138532
0.122726
0.101775
-0.00108833
0.0126197
0.0266271
0.040873
0.0552832
0.0697682
0.0842205
0.0985135
0.112499
0.126009
0.138851
0.150815
0.161668
0.171165
0.179049
0.185063
0.188949
0.190471
0.189414
0.185592
0.178867
0.169281
0.156917
0.140147
0.117676
-0.00583258
0.00895144
0.0240863
0.0395193
0.0551834
0.0709943
0.0868481
0.102618
0.118155
0.133281
0.147794
0.161465
0.174037
0.185235
0.194766
0.202326
0.207613
0.210335
0.210227
0.20705
0.200621
0.190956
0.178122
0.160342
0.136226
-0.0108197
0.00507915
0.0213845
0.0380544
0.0550315
0.0722397
0.0895811
0.106933
0.124145
0.141036
0.157391
0.172966
0.187479
0.200624
0.212063
0.221446
0.228413
0.232609
0.233704
0.231393
0.225434
0.215804
0.202543
0.18371
0.157803
-0.0159832
0.00105933
0.018568
0.0365143
0.0548536
0.0735214
0.0924296
0.111462
0.130472
0.149276
0.167652
0.185341
0.202037
0.217399
0.231047
0.242572
0.251548
0.257547
0.260155
0.258986
0.253718
0.244274
0.230655
0.210723
0.182858
-0.0212383
-0.00303532
0.0156967
0.0349461
0.0546844
0.0748625
0.0954058
0.11621
0.137134
0.157999
0.17858
0.198603
0.217744
0.235624
0.251818
0.265854
0.277229
0.285426
0.28993
0.290249
0.285957
0.276901
0.263021
0.241948
0.211924
-0.0264816
-0.00711599
0.0128443
0.0334079
0.0545664
0.0762902
0.0985231
0.121177
0.144124
0.167194
0.190164
0.212752
0.234616
0.255347
0.274467
0.29144
0.305675
0.316546
0.323418
0.325662
0.322716
0.314317
0.300317
0.278066
0.245647
-0.0315921
-0.0110793
0.0100961
0.0319663
0.0545474
0.0778337
0.101793
0.126358
0.151424
0.176833
0.202373
0.227763
0.252648
0.27659
0.299067
0.319468
0.337105
0.35123
0.361054
0.365779
0.364662
0.357287
0.343371
0.319915
0.28481
-0.0364346
-0.0148103
0.00754578
0.0306935
0.0546771
0.0795201
0.10522
0.131739
0.158998
0.186867
0.215151
0.243579
0.271795
0.299341
0.325652
0.350046
0.371729
0.389808
0.403316
0.411234
0.412584
0.406731
0.393195
0.36853
0.330382
-0.0408642
-0.0181875
0.00529077
0.0296616
0.0550018
0.0813692
0.108796
0.137284
0.166788
0.197215
0.2284
0.260098
0.291963
0.323532
0.354206
0.383238
0.409724
0.432611
0.450715
0.462747
0.467413
0.463775
0.451056
0.425214
0.38358
-0.0447336
-0.02109
0.00342481
0.0289361
0.0555572
0.0833854
0.112495
0.142932
0.174701
0.207753
0.241972
0.277154
0.312985
0.349015
0.38463
0.419032
0.45121
0.47994
0.503786
0.521126
0.530252
0.5298
0.518551
0.491641
0.445959
-0.0479018
-0.0234062
0.00202908
0.0285665
0.0563595
0.0855492
0.116259
0.148587
0.182596
0.218301
0.25565
0.294501
0.334598
0.375532
0.416707
0.457296
0.496201
0.532025
0.563054
0.587258
0.602399
0.606514
0.597724
0.569997
0.51956
-0.0502457
-0.0250452
0.00116166
0.0285762
0.0573948
0.0878065
0.119989
0.154102
0.190277
0.228608
0.269127
0.311783
0.356409
0.402677
0.450051
0.497721
0.544541
0.588961
0.628976
0.662082
0.685362
0.696036
0.691236
0.663208
0.607131
-0.0516724
-0.0259483
0.000845869
0.0289513
0.0586086
0.0900576
0.123535
0.159269
0.197473
0.238332
0.281989
0.328511
0.377862
0.429846
0.484047
0.539743
0.595808
0.650598
0.70184
0.746509
0.780855
0.80099
0.802582
0.775279
0.712498
-0.0521322
-0.0261017
0.00105893
0.0296296
0.0598953
0.0921478
0.126685
0.163811
0.203828
0.247031
0.293693
0.344035
0.398198
0.456181
0.517772
0.582436
0.649182
0.716389
0.781603
0.841285
0.890725
0.924588
0.936411
0.911845
0.841206
-0.0516304
-0.0255465
0.0017222
0.0304922
0.0610906
0.0938597
0.12916
0.167372
0.208896
0.254149
0.303554
0.357522
0.41642
0.480518
0.549909
0.624386
0.703268
0.785156
0.867612
0.946724
1.01678
1.07066
1.09892
1.08102
1.00167
-0.050237
-0.0243874
0.00269523
0.0313588
0.0619682
0.0949123
0.130611
0.16952
0.212141
0.259018
0.310743
0.367945
0.431268
0.501333
0.57866
0.663549
0.755872
0.854772
0.958205
1.06224
1.16037
1.24355
1.29831
1.29476
1.20737
-0.0480907
-0.0227942
0.0037749
0.031989
0.0622434
0.0949661
0.130629
0.169758
0.212948
0.260873
0.3143
0.374093
0.441217
0.516717
0.601672
0.697093
0.803727
0.921723
1.05005
1.18553
1.32154
1.44747
1.54511
1.57103
1.48128
-0.0453969
-0.020999
0.0047001
0.032088
0.0615801
0.0936324
0.128756
0.167535
0.210644
0.258873
0.313156
0.374595
0.44449
0.524365
0.615969
0.721234
0.842152
0.980483
1.13715
1.31103
1.49708
1.68469
1.85151
1.93685
1.86473
-0.0424166
-0.0192811
0.0051709
0.0313305
0.0596203
0.0905091
0.124531
0.162304
0.204562
0.252185
0.30624
0.36804
0.439202
0.521732
0.6181
0.731322
0.864984
1.02314
1.2099
1.42826
1.67794
1.95233
2.22902
2.4309
2.43194
-0.0394504
-0.0179313
0.00490469
0.0294389
0.0560859
0.0853099
0.117645
0.153719
0.194289
0.24028
0.292844
0.353436
0.42392
0.506709
0.604951
0.722773
0.865576
1.04032
1.25569
1.52173
1.84815
2.23977
2.68371
3.10337
3.31485
-0.0368172
-0.017248
0.00362184
0.0261501
0.0507272
0.0777931
0.107857
0.141524
0.179529
0.222787
0.272455
0.330028
0.397471
0.477423
0.573484
0.690657
0.835998
1.01953
1.25553
1.56431
1.97281
2.50869
3.1901
4.01478
4.80843
-0.0347772
-0.0176982
0.000642974
0.0205618
0.0424028
0.0665546
0.0934675
0.123678
0.15784
0.196771
0.241512
0.293422
0.354315
0.426674
0.513984
0.621291
0.756117
0.930001
1.16132
1.48062
1.9368
2.59636
3.5721
5.1944
7.6784
-0.0334326
-0.0195421
-0.00445212
0.0120897
0.0303577
0.0506591
0.0733477
0.0988414
0.127646
0.160385
0.197851
0.241064
0.291378
0.350634
0.421417
0.5075
0.614664
0.752279
0.936874
1.20041
1.60434
2.26055
3.4718
6.35801
12.4032
)
;

boundaryField
{
    movingWall
    {
        type            zeroGradient;
    }
    fixedWalls
    {
        type            zeroGradient;
    }
    frontAndBack
    {
        type            empty;
    }
    procBoundary1to0
    {
        type            processor;
        value           nonuniform List<scalar> 
50
(
0.0305707
0.0309118
0.0311512
0.03131
0.0314114
0.0314489
0.0314134
0.0312966
0.0310882
0.0307763
0.0303473
0.0297858
0.0290744
0.0281943
0.0271245
0.0258427
0.024325
0.0225462
0.0204806
0.0181022
0.015386
0.0123085
0.00884948
0.00499332
0.000730757
-0.003939
-0.00900607
-0.0144475
-0.0202249
-0.0262822
-0.0325438
-0.0389134
-0.0452735
-0.0514867
-0.057398
-0.0628401
-0.0676394
-0.071626
-0.0746446
-0.0765678
-0.0773097
-0.0768394
-0.0751917
-0.072474
-0.0688651
-0.0646082
-0.0600146
-0.0554247
-0.050893
-0.0463633
)
;
    }
}


// ************************************************************************* //
