/*--------------------------------*- C++ -*----------------------------------*\
| =========                 |                                                 |
| \\      /  F ield         | OpenFOAM: The Open Source CFD Toolbox           |
|  \\    /   O peration     | Version:  v2012                                 |
|   \\  /    A nd           | Website:  www.openfoam.com                      |
|    \\/     M anipulation  |                                                 |
\*---------------------------------------------------------------------------*/
FoamFile
{
    version     2.0;
    format      ascii;
    class       volVectorField;
    location    "0.5";
    object      U;
}
// * * * * * * * * * * * * * * * * * * * * * * * * * * * * * * * * * * * * * //

dimensions      [0 1 -1 0 0 0 0];


internalField   nonuniform List<vector> 
1250
(
(-0.00705757 -8.10208e-06 0)
(-0.00699926 -2.69494e-05 0)
(-0.00687974 -4.5541e-05 0)
(-0.00670037 -6.36127e-05 0)
(-0.00646338 -8.08923e-05 0)
(-0.00617188 -9.71009e-05 0)
(-0.00582991 -0.000111954 0)
(-0.00544242 -0.000125164 0)
(-0.00501529 -0.000136443 0)
(-0.00455526 -0.000145502 0)
(-0.00406998 -0.000152064 0)
(-0.00356791 -0.000155859 0)
(-0.00305827 -0.000156634 0)
(-0.00255099 -0.000154152 0)
(-0.00205657 -0.000148202 0)
(-0.00158598 -0.000138599 0)
(-0.00115049 -0.000125195 0)
(-0.000761469 -0.000107896 0)
(-0.000430039 -8.67007e-05 0)
(-0.000166606 -6.17898e-05 0)
(1.99689e-05 -3.37531e-05 0)
(0.000123749 -4.0733e-06 0)
(0.00014492 2.37954e-05 0)
(9.98306e-05 4.17801e-05 0)
(3.21288e-05 3.20614e-05 0)
(-0.0199084 -5.42032e-05 0)
(-0.0197475 -0.000174848 0)
(-0.0194202 -0.000293656 0)
(-0.0189303 -0.000408917 0)
(-0.018284 -0.000518887 0)
(-0.0174901 -0.000621792 0)
(-0.0165597 -0.000715841 0)
(-0.0155065 -0.000799246 0)
(-0.0143463 -0.000870239 0)
(-0.0130976 -0.000927098 0)
(-0.011781 -0.000968175 0)
(-0.0104191 -0.00099193 0)
(-0.00903665 -0.000996969 0)
(-0.00765975 -0.000982083 0)
(-0.0063159 -0.000946305 0)
(-0.00503343 -0.00088897 0)
(-0.00384089 -0.000809824 0)
(-0.00276637 -0.000709175 0)
(-0.00183636 -0.000588176 0)
(-0.0010743 -0.000449331 0)
(-0.000498247 -0.000297483 0)
(-0.000117596 -0.000141654 0)
(7.24905e-05 1.65782e-06 0)
(0.000102965 0.000101875 0)
(4.21632e-05 9.98425e-05 0)
(-0.0317291 -0.000153815 0)
(-0.0314778 -0.000489379 0)
(-0.0309686 -0.000819586 0)
(-0.0302077 -0.00113968 0)
(-0.0292047 -0.0014448 0)
(-0.0279735 -0.00173005 0)
(-0.0265312 -0.00199052 0)
(-0.0248988 -0.00222131 0)
(-0.0231012 -0.00241764 0)
(-0.0211664 -0.00257487 0)
(-0.019126 -0.00268864 0)
(-0.0170146 -0.00275493 0)
(-0.0148695 -0.00277018 0)
(-0.0127302 -0.00273146 0)
(-0.0106378 -0.00263659 0)
(-0.00863433 -0.00248442 0)
(-0.0067617 -0.00227508 0)
(-0.0050605 -0.0020105 0)
(-0.00356832 -0.00169511 0)
(-0.00231755 -0.00133704 0)
(-0.00133242 -0.000950213 0)
(-0.000624854 -0.000557649 0)
(-0.000188776 -0.000196618 0)
(7.10489e-06 7.28389e-05 0)
(2.53656e-05 0.000146523 0)
(-0.0427079 -0.000296296 0)
(-0.0423767 -0.000935069 0)
(-0.0417073 -0.00156339 0)
(-0.0407077 -0.00217222 0)
(-0.039391 -0.00275238 0)
(-0.0377749 -0.00329459 0)
(-0.035882 -0.00378961 0)
(-0.0337396 -0.00422829 0)
(-0.0313798 -0.00460168 0)
(-0.028839 -0.00490124 0)
(-0.0261579 -0.00511893 0)
(-0.023381 -0.00524747 0)
(-0.0205561 -0.00528055 0)
(-0.0177335 -0.00521309 0)
(-0.0149654 -0.00504164 0)
(-0.0123048 -0.00476474 0)
(-0.00980429 -0.00438357 0)
(-0.00751418 -0.00390275 0)
(-0.00548084 -0.00333159 0)
(-0.003744 -0.00268593 0)
(-0.00233376 -0.00199105 0)
(-0.00126628 -0.00128612 0)
(-0.000538818 -0.000630049 0)
(-0.000129794 -0.000110758 0)
(-5.90772e-07 0.000130302 0)
(-0.0529986 -0.000475222 0)
(-0.0525967 -0.00149188 0)
(-0.0517853 -0.00249168 0)
(-0.050574 -0.00346031 0)
(-0.0489785 -0.00438324 0)
(-0.0470201 -0.00524588 0)
(-0.0447256 -0.00603369 0)
(-0.042128 -0.00673232 0)
(-0.0392653 -0.00732783 0)
(-0.0361809 -0.00780695 0)
(-0.0329232 -0.0081573 0)
(-0.0295448 -0.00836778 0)
(-0.0261021 -0.00842888 0)
(-0.0226546 -0.0083332 0)
(-0.0192636 -0.00807596 0)
(-0.0159912 -0.00765566 0)
(-0.0128986 -0.00707503 0)
(-0.0100445 -0.00634214 0)
(-0.00748311 -0.00547211 0)
(-0.00526111 -0.00448941 0)
(-0.00341533 -0.00343131 0)
(-0.00196851 -0.00235269 0)
(-0.000925193 -0.00133206 0)
(-0.000280055 -0.000480202 0)
(-2.81855e-05 3.54958e-05 0)
(-0.0627335 -0.000686326 0)
(-0.0622693 -0.00214844 0)
(-0.0613311 -0.00358619 0)
(-0.0599303 -0.00497912 0)
(-0.0580844 -0.00630656 0)
(-0.0558177 -0.00754775 0)
(-0.053161 -0.00868202 0)
(-0.0501512 -0.00968908 0)
(-0.0468317 -0.0105493 0)
(-0.0432518 -0.0112439 0)
(-0.039466 -0.0117557 0)
(-0.035534 -0.0120692 0)
(-0.0315194 -0.0121714 0)
(-0.0274893 -0.0120523 0)
(-0.0235128 -0.0117059 0)
(-0.0196598 -0.0111306 0)
(-0.0159994 -0.010331 0)
(-0.012598 -0.00931887 0)
(-0.00951698 -0.00811557 0)
(-0.00681081 -0.00675426 0)
(-0.00452429 -0.00528373 0)
(-0.00268889 -0.00377313 0)
(-0.00131946 -0.00231746 0)
(-0.000430608 -0.00104498 0)
(-5.46078e-05 -0.000139217 0)
(-0.0720257 -0.000925089 0)
(-0.0715066 -0.00289416 0)
(-0.0704548 -0.00483049 0)
(-0.0688827 -0.0067068 0)
(-0.0668096 -0.00849553 0)
(-0.0642621 -0.0101691 0)
(-0.0612739 -0.0116999 0)
(-0.0578857 -0.0130612 0)
(-0.0541451 -0.0142269 0)
(-0.0501061 -0.0151724 0)
(-0.0458286 -0.0158749 0)
(-0.0413782 -0.0163141 0)
(-0.0368248 -0.0164733 0)
(-0.032242 -0.0163396 0)
(-0.027706 -0.0159053 0)
(-0.0232937 -0.0151689 0)
(-0.0190815 -0.0141368 0)
(-0.0151433 -0.0128245 0)
(-0.0115484 -0.0112592 0)
(-0.00835958 -0.00948223 0)
(-0.00563095 -0.0075529 0)
(-0.00340455 -0.00555259 0)
(-0.00170751 -0.00358958 0)
(-0.000575903 -0.00180483 0)
(-7.90135e-05 -0.000390904 0)
(-0.0809702 -0.00118678 0)
(-0.0804033 -0.00371929 0)
(-0.0792493 -0.00621007 0)
(-0.0775214 -0.0086244 0)
(-0.07524 -0.0109273 0)
(-0.0724338 -0.0130836 0)
(-0.0691387 -0.0150586 0)
(-0.0653984 -0.0168181 0)
(-0.061264 -0.0183292 0)
(-0.0567934 -0.0195607 0)
(-0.0520513 -0.020484 0)
(-0.0471081 -0.0210735 0)
(-0.0420393 -0.021308 0)
(-0.0369245 -0.0211716 0)
(-0.0318462 -0.0206547 0)
(-0.0268883 -0.0197555 0)
(-0.0221344 -0.0184817 0)
(-0.0176661 -0.0168522 0)
(-0.0135611 -0.0148995 0)
(-0.00989132 -0.0126722 0)
(-0.00672148 -0.0102385 0)
(-0.00410546 -0.00769017 0)
(-0.00208384 -0.00514571 0)
(-0.000714329 -0.00275509 0)
(-0.000101391 -0.000715477 0)
(-0.0896464 -0.0014665 0)
(-0.0890385 -0.00461504 0)
(-0.0877924 -0.00771248 0)
(-0.0859218 -0.0107162 0)
(-0.0834482 -0.0135832 0)
(-0.0804013 -0.0162706 0)
(-0.0768191 -0.0187355 0)
(-0.0727475 -0.0209362 0)
(-0.0682404 -0.0228323 0)
(-0.0633591 -0.0243855 0)
(-0.0581722 -0.0255607 0)
(-0.0527545 -0.0263266 0)
(-0.0471866 -0.0266573 0)
(-0.0415536 -0.0265331 0)
(-0.0359442 -0.0259419 0)
(-0.030449 -0.0248812 0)
(-0.0251591 -0.0233594 0)
(-0.0201642 -0.0213981 0)
(-0.015551 -0.0190341 0)
(-0.0114016 -0.0163224 0)
(-0.00779214 -0.0133385 0)
(-0.00478935 -0.0101824 0)
(-0.00244776 -0.00698069 0)
(-0.000846231 -0.00388972 0)
(-0.000122056 -0.0011089 0)
(-0.0981188 -0.00175912 0)
(-0.0974766 -0.00557324 0)
(-0.0961479 -0.00932672 0)
(-0.0941465 -0.0129687 0)
(-0.0914943 -0.0164479 0)
(-0.0882221 -0.0197129 0)
(-0.0843691 -0.0227126 0)
(-0.079983 -0.0253971 0)
(-0.0751199 -0.0277179 0)
(-0.0698439 -0.0296292 0)
(-0.064227 -0.0310889 0)
(-0.058348 -0.0320594 0)
(-0.052292 -0.0325092 0)
(-0.0461497 -0.0324143 0)
(-0.0400157 -0.0317596 0)
(-0.0339875 -0.030541 0)
(-0.0281638 -0.0287669 0)
(-0.0226432 -0.0264605 0)
(-0.017522 -0.0236622 0)
(-0.0128933 -0.0204316 0)
(-0.00884542 -0.0168505 0)
(-0.00545845 -0.0130254 0)
(-0.00280118 -0.00908918 0)
(-0.000972863 -0.00520305 0)
(-0.000141419 -0.00156779 0)
(-0.106438 -0.00205912 0)
(-0.105769 -0.00658589 0)
(-0.104367 -0.0110426 0)
(-0.102245 -0.0153699 0)
(-0.0994271 -0.0195077 0)
(-0.0959432 -0.0233959 0)
(-0.0918335 -0.0269748 0)
(-0.0871471 -0.0301856 0)
(-0.0819418 -0.0329715 0)
(-0.076284 -0.0352786 0)
(-0.0702485 -0.0370569 0)
(-0.0639178 -0.0382619 0)
(-0.0573814 -0.0388559 0)
(-0.0507351 -0.0388097 0)
(-0.0440796 -0.0381044 0)
(-0.0375196 -0.0367333 0)
(-0.031162 -0.0347039 0)
(-0.0251144 -0.03204 0)
(-0.0194836 -0.0287842 0)
(-0.0143741 -0.0249997 0)
(-0.00988753 -0.0207732 0)
(-0.00611757 -0.0162162 0)
(-0.00314736 -0.011467 0)
(-0.00109586 -0.0066907 0)
(-0.0001599 -0.00208963 0)
(-0.114643 -0.00236056 0)
(-0.113954 -0.00764497 0)
(-0.112487 -0.0128503 0)
(-0.110257 -0.0179083 0)
(-0.107284 -0.0227501 0)
(-0.103601 -0.0273066 0)
(-0.0992482 -0.0315088 0)
(-0.0942744 -0.0352889 0)
(-0.0887391 -0.0385811 0)
(-0.0827105 -0.0413227 0)
(-0.0762659 -0.0434554 0)
(-0.069491 -0.0449268 0)
(-0.0624795 -0.0456922 0)
(-0.0553324 -0.0457164 0)
(-0.0481565 -0.0449754 0)
(-0.0410639 -0.0434589 0)
(-0.0341699 -0.0411724 0)
(-0.0275919 -0.0381391 0)
(-0.0214478 -0.0344026 0)
(-0.0158544 -0.0300285 0)
(-0.0109267 -0.0251069 0)
(-0.00677281 -0.0197539 0)
(-0.00349015 -0.014112 0)
(-0.00121697 -0.00835006 0)
(-0.000177892 -0.00267289 0)
(-0.122759 -0.002657 0)
(-0.122057 -0.00874211 0)
(-0.120535 -0.0147396 0)
(-0.118207 -0.0205726 0)
(-0.115092 -0.0261629 0)
(-0.111223 -0.0314321 0)
(-0.10664 -0.0363019 0)
(-0.101391 -0.0406948 0)
(-0.0955379 -0.0445356 0)
(-0.0891491 -0.047752 0)
(-0.0823041 -0.0502767 0)
(-0.0750918 -0.0520485 0)
(-0.0676097 -0.0530148 0)
(-0.0599637 -0.053133 0)
(-0.0522672 -0.0523732 0)
(-0.0446395 -0.0507203 0)
(-0.0372051 -0.0481761 0)
(-0.0300916 -0.0447623 0)
(-0.0234285 -0.0405218 0)
(-0.0173457 -0.0355218 0)
(-0.0119722 -0.0298547 0)
(-0.00743083 -0.0236399 0)
(-0.00383362 -0.0170242 0)
(-0.00133795 -0.0101805 0)
(-0.000195755 -0.00331699 0)
(-0.130797 -0.00294148 0)
(-0.130091 -0.00986844 0)
(-0.128525 -0.0167002 0)
(-0.12611 -0.0233509 0)
(-0.122867 -0.0297332 0)
(-0.118825 -0.0357593 0)
(-0.114025 -0.0413409 0)
(-0.108516 -0.0463908 0)
(-0.102357 -0.0508235 0)
(-0.0956191 -0.0545567 0)
(-0.0883832 -0.0575129 0)
(-0.0807405 -0.0596215 0)
(-0.0727922 -0.0608206 0)
(-0.0646494 -0.0610591 0)
(-0.0564314 -0.0602998 0)
(-0.0482656 -0.0585212 0)
(-0.0402856 -0.0557205 0)
(-0.0326299 -0.0519158 0)
(-0.0254403 -0.0471487 0)
(-0.0188602 -0.041486 0)
(-0.0130336 -0.0350218 0)
(-0.00809844 -0.0278785 0)
(-0.00418182 -0.0202065 0)
(-0.00146048 -0.0121834 0)
(-0.000213816 -0.00402226 0)
(-0.138758 -0.0032065 0)
(-0.138057 -0.0110144 0)
(-0.136457 -0.0187206 0)
(-0.133969 -0.0262304 0)
(-0.130612 -0.0334473 0)
(-0.126413 -0.0402738 0)
(-0.121412 -0.0466117 0)
(-0.115657 -0.0523632 0)
(-0.109207 -0.0574323 0)
(-0.102133 -0.0617259 0)
(-0.0945173 -0.0651555 0)
(-0.0864527 -0.0676397 0)
(-0.0780441 -0.0691061 0)
(-0.069407 -0.0694941 0)
(-0.0606672 -0.0687573 0)
(-0.05196 -0.0668664 0)
(-0.0434286 -0.0638121 0)
(-0.0352228 -0.0596078 0)
(-0.0274973 -0.0542918 0)
(-0.02041 -0.0479298 0)
(-0.0141203 -0.0406165 0)
(-0.00878234 -0.0324765 0)
(-0.00453868 -0.0236641 0)
(-0.00158613 -0.014362 0)
(-0.000232371 -0.00478989 0)
(-0.146629 -0.00344404 0)
(-0.145942 -0.0121694 0)
(-0.144321 -0.0207881 0)
(-0.141774 -0.0291966 0)
(-0.138319 -0.0372893 0)
(-0.13398 -0.0449591 0)
(-0.128796 -0.0520974 0)
(-0.122813 -0.0585959 0)
(-0.11609 -0.0643471 0)
(-0.108696 -0.0692464 0)
(-0.100714 -0.0731935 0)
(-0.0922389 -0.0760949 0)
(-0.0833777 -0.0778665 0)
(-0.0742508 -0.0784363 0)
(-0.0649901 -0.0777471 0)
(-0.0557388 -0.0757602 0)
(-0.04665 -0.072458 0)
(-0.0378855 -0.0678473 0)
(-0.0296134 -0.0619618 0)
(-0.0220068 -0.0548644 0)
(-0.0152417 -0.0466496 0)
(-0.00948898 -0.0374437 0)
(-0.00490795 -0.0274049 0)
(-0.00171643 -0.0167218 0)
(-0.000251696 -0.00562189 0)
(-0.154382 -0.00364567 0)
(-0.15372 -0.0133221 0)
(-0.152091 -0.0228886 0)
(-0.149502 -0.0322332 0)
(-0.145966 -0.0412413 0)
(-0.141509 -0.0497959 0)
(-0.136163 -0.0577785 0)
(-0.129975 -0.0650695 0)
(-0.122999 -0.0715497 0)
(-0.115305 -0.0771019 0)
(-0.106974 -0.081613 0)
(-0.0981027 -0.0849763 0)
(-0.0888002 -0.0870944 0)
(-0.0791907 -0.087882 0)
(-0.069412 -0.0872696 0)
(-0.0596153 -0.0852068 0)
(-0.0499639 -0.0816657 0)
(-0.0406317 -0.0766446 0)
(-0.0318012 -0.0701708 0)
(-0.0236616 -0.0623032 0)
(-0.0164063 -0.0531345 0)
(-0.0102245 -0.0427925 0)
(-0.00529322 -0.0314392 0)
(-0.00185279 -0.0192696 0)
(-0.000272045 -0.006521 0)
(-0.161974 -0.00380256 0)
(-0.161348 -0.0144602 0)
(-0.159726 -0.0250065 0)
(-0.157113 -0.0353215 0)
(-0.153519 -0.0452821 0)
(-0.148966 -0.0547617 0)
(-0.143485 -0.0636315 0)
(-0.137117 -0.0717604 0)
(-0.129915 -0.0790172 0)
(-0.121945 -0.0852713 0)
(-0.113289 -0.0903957 0)
(-0.104041 -0.094269 0)
(-0.0943126 -0.0967787 0)
(-0.0842316 -0.0978248 0)
(-0.0739412 -0.0973228 0)
(-0.0636001 -0.0952087 0)
(-0.0533821 -0.0914421 0)
(-0.0434737 -0.0860103 0)
(-0.0340725 -0.0789323 0)
(-0.0253847 -0.0702612 0)
(-0.0176226 -0.0600869 0)
(-0.0109949 -0.0485377 0)
(-0.00569794 -0.0357795 0)
(-0.00199657 -0.0220144 0)
(-0.000293662 -0.00749069 0)
(-0.169348 -0.00390572 0)
(-0.168769 -0.01557 0)
(-0.167171 -0.027124 0)
(-0.164554 -0.0384402 0)
(-0.160927 -0.0493873 0)
(-0.156307 -0.0598297 0)
(-0.15072 -0.069628 0)
(-0.144204 -0.07864 0)
(-0.136808 -0.0867215 0)
(-0.128593 -0.0937281 0)
(-0.11964 -0.0995176 0)
(-0.110041 -0.103953 0)
(-0.0999088 -0.106904 0)
(-0.0893727 -0.108254 0)
(-0.078581 -0.107902 0)
(-0.0677001 -0.105766 0)
(-0.0569138 -0.101793 0)
(-0.0464219 -0.0959546 0)
(-0.0364377 -0.0882603 0)
(-0.0271857 -0.0787551 0)
(-0.0188983 -0.0675246 0)
(-0.0118058 -0.0546966 0)
(-0.00612542 -0.0404406 0)
(-0.0021491 -0.0249666 0)
(-0.000316786 -0.00853514 0)
(-0.176427 -0.00394614 0)
(-0.175907 -0.0166372 0)
(-0.174351 -0.0292215 0)
(-0.171754 -0.0415649 0)
(-0.168122 -0.0535286 0)
(-0.163468 -0.0649682 0)
(-0.157812 -0.0757344 0)
(-0.151186 -0.0856734 0)
(-0.143633 -0.0946279 0)
(-0.135213 -0.102439 0)
(-0.125999 -0.108948 0)
(-0.116083 -0.114 0)
(-0.105575 -0.117447 0)
(-0.0946064 -0.119153 0)
(-0.0833296 -0.118996 0)
(-0.0719179 -0.116876 0)
(-0.0605652 -0.112721 0)
(-0.0494846 -0.106487 0)
(-0.0389059 -0.0981692 0)
(-0.0290732 -0.0878028 0)
(-0.0202409 -0.0754672 0)
(-0.0126625 -0.0612885 0)
(-0.00657892 -0.0454396 0)
(-0.00231169 -0.0281383 0)
(-0.000341655 -0.00965918 0)
(-0.183118 -0.00391507 0)
(-0.18267 -0.0176464 0)
(-0.181174 -0.0312773 0)
(-0.178624 -0.0446681 0)
(-0.17502 -0.0576732 0)
(-0.170369 -0.0701402 0)
(-0.164685 -0.0819104 0)
(-0.157995 -0.0928184 0)
(-0.150334 -0.102694 0)
(-0.141755 -0.111362 0)
(-0.132325 -0.118648 0)
(-0.122134 -0.124377 0)
(-0.111287 -0.12838 0)
(-0.0999175 -0.130499 0)
(-0.0881792 -0.13059 0)
(-0.0762518 -0.128531 0)
(-0.0643391 -0.124226 0)
(-0.0526677 -0.117614 0)
(-0.0414848 -0.108672 0)
(-0.0310552 -0.0974226 0)
(-0.0216573 -0.0839357 0)
(-0.0135705 -0.0683349 0)
(-0.00706167 -0.0507952 0)
(-0.00248567 -0.0315432 0)
(-0.000368516 -0.0108684 0)
(-0.189308 -0.00380433 0)
(-0.188944 -0.0185814 0)
(-0.187529 -0.0332675 0)
(-0.185054 -0.0477187 0)
(-0.181515 -0.0617836 0)
(-0.17691 -0.0753029 0)
(-0.171248 -0.0881087 0)
(-0.164546 -0.100025 0)
(-0.156833 -0.110868 0)
(-0.148152 -0.120447 0)
(-0.138564 -0.128569 0)
(-0.128149 -0.135039 0)
(-0.117012 -0.139664 0)
(-0.105282 -0.142261 0)
(-0.0931148 -0.142662 0)
(-0.0806946 -0.140717 0)
(-0.0682346 -0.136305 0)
(-0.0559748 -0.129342 0)
(-0.0441805 -0.119783 0)
(-0.0331388 -0.107633 0)
(-0.0231545 -0.0929525 0)
(-0.014535 -0.0758588 0)
(-0.007577 -0.0565286 0)
(-0.00267243 -0.0351966 0)
(-0.00039763 -0.0121689 0)
(-0.194862 -0.00360671 0)
(-0.194592 -0.0194256 0)
(-0.193281 -0.0351665 0)
(-0.190913 -0.0506822 0)
(-0.187479 -0.0658173 0)
(-0.182971 -0.0804065 0)
(-0.177387 -0.0942741 0)
(-0.170736 -0.107234 0)
(-0.163037 -0.119088 0)
(-0.154322 -0.129632 0)
(-0.144643 -0.138651 0)
(-0.134071 -0.145928 0)
(-0.122704 -0.151248 0)
(-0.110667 -0.154397 0)
(-0.0981136 -0.155178 0)
(-0.0852331 -0.153412 0)
(-0.0722462 -0.148947 0)
(-0.0594064 -0.141669 0)
(-0.0469975 -0.131509 0)
(-0.0353306 -0.118452 0)
(-0.0247388 -0.10254 0)
(-0.0155615 -0.0838851 0)
(-0.00812838 -0.0626625 0)
(-0.00287344 -0.0391154 0)
(-0.000429282 -0.0135677 0)
(-0.199621 -0.00331643 0)
(-0.199457 -0.0201622 0)
(-0.198272 -0.0369463 0)
(-0.196046 -0.0535204 0)
(-0.192762 -0.0697263 0)
(-0.188406 -0.0853944 0)
(-0.182966 -0.100343 0)
(-0.176439 -0.114375 0)
(-0.168831 -0.127282 0)
(-0.160164 -0.138841 0)
(-0.150475 -0.14882 0)
(-0.139826 -0.156977 0)
(-0.128303 -0.163069 0)
(-0.116025 -0.166852 0)
(-0.103143 -0.168096 0)
(-0.0898471 -0.166585 0)
(-0.076364 -0.162133 0)
(-0.0629603 -0.154591 0)
(-0.0499389 -0.143859 0)
(-0.0376364 -0.129895 0)
(-0.026417 -0.112722 0)
(-0.0166556 -0.09244 0)
(-0.00871956 -0.0692219 0)
(-0.00309034 -0.0433185 0)
(-0.000463792 -0.0150726 0)
(-0.203403 -0.00292958 0)
(-0.203355 -0.0207746 0)
(-0.202319 -0.0385777 0)
(-0.200271 -0.0561915 0)
(-0.197189 -0.0734572 0)
(-0.193046 -0.0902028 0)
(-0.187823 -0.106241 0)
(-0.181502 -0.121368 0)
(-0.174076 -0.135363 0)
(-0.165551 -0.147987 0)
(-0.155951 -0.158989 0)
(-0.14532 -0.1681 0)
(-0.133734 -0.175048 0)
(-0.121299 -0.179557 0)
(-0.108162 -0.181357 0)
(-0.0945083 -0.180192 0)
(-0.0805719 -0.175835 0)
(-0.0666303 -0.168095 0)
(-0.0530056 -0.156834 0)
(-0.0400613 -0.141977 0)
(-0.0281958 -0.123522 0)
(-0.0178235 -0.101551 0)
(-0.0093547 -0.0762337 0)
(-0.00332496 -0.0478265 0)
(-0.000501532 -0.0166922 0)
(-0.206001 -0.00244477 0)
(-0.206076 -0.0212466 0)
(-0.205212 -0.04003 0)
(-0.203382 -0.0586506 0)
(-0.200554 -0.0769513 0)
(-0.196694 -0.0947601 0)
(-0.191769 -0.111887 0)
(-0.185749 -0.128121 0)
(-0.178608 -0.143232 0)
(-0.170337 -0.156966 0)
(-0.160938 -0.169051 0)
(-0.150441 -0.179194 0)
(-0.138902 -0.18709 0)
(-0.126414 -0.192425 0)
(-0.113112 -0.194887 0)
(-0.0991787 -0.194175 0)
(-0.0848473 -0.190012 0)
(-0.0704062 -0.182158 0)
(-0.0561966 -0.17043 0)
(-0.04261 -0.154709 0)
(-0.0300822 -0.134961 0)
(-0.0190721 -0.111248 0)
(-0.0100386 -0.0837271 0)
(-0.00357946 -0.0526621 0)
(-0.000542941 -0.0184363 0)
(-0.207179 -0.00186361 0)
(-0.207382 -0.0215636 0)
(-0.206713 -0.0412718 0)
(-0.205141 -0.0608497 0)
(-0.202625 -0.0801447 0)
(-0.199123 -0.0989871 0)
(-0.194587 -0.117186 0)
(-0.188972 -0.134529 0)
(-0.182234 -0.150774 0)
(-0.174342 -0.165657 0)
(-0.16528 -0.178884 0)
(-0.155051 -0.190136 0)
(-0.143693 -0.199075 0)
(-0.131278 -0.205348 0)
(-0.117926 -0.208593 0)
(-0.103809 -0.208458 0)
(-0.0891596 -0.204608 0)
(-0.0742731 -0.196747 0)
(-0.0595084 -0.184632 0)
(-0.0452866 -0.168096 0)
(-0.032084 -0.147061 0)
(-0.020409 -0.121559 0)
(-0.0107768 -0.0917338 0)
(-0.00385641 -0.0578508 0)
(-0.000588553 -0.0203157 0)
(-0.206674 -0.00119139 0)
(-0.207007 -0.0217125 0)
(-0.206554 -0.0422716 0)
(-0.20528 -0.0627386 0)
(-0.203138 -0.0829688 0)
(-0.200074 -0.102798 0)
(-0.196026 -0.122038 0)
(-0.190932 -0.140474 0)
(-0.184728 -0.157861 0)
(-0.177361 -0.17392 0)
(-0.168787 -0.188342 0)
(-0.158985 -0.200781 0)
(-0.147965 -0.210863 0)
(-0.135775 -0.218193 0)
(-0.122513 -0.222357 0)
(-0.108335 -0.222942 0)
(-0.0934681 -0.219549 0)
(-0.0782096 -0.211811 0)
(-0.0629348 -0.199418 0)
(-0.0480947 -0.182138 0)
(-0.0342095 -0.159841 0)
(-0.0218434 -0.132516 0)
(-0.011576 -0.100288 0)
(-0.00415895 -0.0634209 0)
(-0.000639029 -0.0223429 0)
(-0.204192 -0.00043758 0)
(-0.204654 -0.0216828 0)
(-0.204437 -0.0429982 0)
(-0.203503 -0.0642657 0)
(-0.201797 -0.0853511 0)
(-0.199255 -0.106099 0)
(-0.195801 -0.126328 0)
(-0.191355 -0.145826 0)
(-0.185831 -0.164345 0)
(-0.179149 -0.181598 0)
(-0.171238 -0.197259 0)
(-0.162046 -0.210957 0)
(-0.15155 -0.222285 0)
(-0.139766 -0.2308 0)
(-0.126763 -0.236033 0)
(-0.112678 -0.237503 0)
(-0.0977202 -0.234735 0)
(-0.0821868 -0.227281 0)
(-0.0664657 -0.214749 0)
(-0.0510371 -0.196827 0)
(-0.0364685 -0.173315 0)
(-0.0233864 -0.144151 0)
(-0.0124446 -0.109428 0)
(-0.00449101 -0.0694043 0)
(-0.000695205 -0.0245322 0)
(-0.199412 0.000383684 0)
(-0.199997 -0.0214671 0)
(-0.200033 -0.0434222 0)
(-0.199478 -0.0653787 0)
(-0.198272 -0.0872166 0)
(-0.19634 -0.108793 0)
(-0.193592 -0.129937 0)
(-0.189929 -0.150443 0)
(-0.185244 -0.170065 0)
(-0.179426 -0.188512 0)
(-0.172374 -0.205444 0)
(-0.164 -0.220469 0)
(-0.154242 -0.233143 0)
(-0.143078 -0.242978 0)
(-0.130541 -0.249444 0)
(-0.116735 -0.251986 0)
(-0.101847 -0.250041 0)
(-0.0861661 -0.243067 0)
(-0.0700862 -0.23057 0)
(-0.0541159 -0.212142 0)
(-0.0388722 -0.187494 0)
(-0.0250513 -0.156496 0)
(-0.013393 -0.119195 0)
(-0.00485757 -0.0758375 0)
(-0.000758153 -0.0269 0)
(-0.191984 0.00125325 0)
(-0.192681 -0.021062 0)
(-0.192983 -0.0435168 0)
(-0.192844 -0.0660265 0)
(-0.192201 -0.088489 0)
(-0.190967 -0.110778 0)
(-0.189042 -0.132738 0)
(-0.186305 -0.154174 0)
(-0.182627 -0.174847 0)
(-0.177868 -0.194466 0)
(-0.171892 -0.212684 0)
(-0.16457 -0.229089 0)
(-0.155797 -0.243207 0)
(-0.145503 -0.2545 0)
(-0.133677 -0.262376 0)
(-0.120378 -0.266197 0)
(-0.105762 -0.265305 0)
(-0.0900955 -0.259044 0)
(-0.0737748 -0.246802 0)
(-0.0573316 -0.228048 0)
(-0.0414337 -0.202383 0)
(-0.0268549 -0.169583 0)
(-0.0144343 -0.129635 0)
(-0.00526508 -0.0827626 0)
(-0.000829279 -0.0294659 0)
(-0.181529 0.00214686 0)
(-0.182323 -0.0204686 0)
(-0.182898 -0.0432588 0)
(-0.18321 -0.0661606 0)
(-0.183188 -0.0890932 0)
(-0.18274 -0.111952 0)
(-0.181753 -0.134599 0)
(-0.180089 -0.156857 0)
(-0.177596 -0.178501 0)
(-0.174104 -0.199246 0)
(-0.16944 -0.218741 0)
(-0.163431 -0.236563 0)
(-0.155921 -0.252209 0)
(-0.146788 -0.265097 0)
(-0.13596 -0.274569 0)
(-0.123444 -0.279901 0)
(-0.109348 -0.280324 0)
(-0.0939056 -0.275055 0)
(-0.0775005 -0.263336 0)
(-0.0606819 -0.24449 0)
(-0.0441682 -0.217975 0)
(-0.0288181 -0.183444 0)
(-0.0155856 -0.140801 0)
(-0.00572196 -0.0902291 0)
(-0.000910449 -0.0322534 0)
(-0.167644 0.00303532 0)
(-0.168514 -0.019693 0)
(-0.169366 -0.0426302 0)
(-0.170154 -0.065737 0)
(-0.170807 -0.0889578 0)
(-0.171228 -0.112212 0)
(-0.171292 -0.135388 0)
(-0.170848 -0.15833 0)
(-0.16972 -0.180831 0)
(-0.167712 -0.202621 0)
(-0.164611 -0.223356 0)
(-0.160199 -0.242606 0)
(-0.154265 -0.259848 0)
(-0.146621 -0.274459 0)
(-0.13713 -0.285718 0)
(-0.125728 -0.292809 0)
(-0.112457 -0.294844 0)
(-0.0975021 -0.290893 0)
(-0.0812184 -0.280028 0)
(-0.0641601 -0.261389 0)
(-0.047093 -0.234251 0)
(-0.0309669 -0.198111 0)
(-0.016869 -0.15275 0)
(-0.00623942 -0.0982959 0)
(-0.00100419 -0.0352908 0)
(-0.149902 0.00388512 0)
(-0.150824 -0.0187468 0)
(-0.151948 -0.041619 0)
(-0.153232 -0.0647189 0)
(-0.154606 -0.0880183 0)
(-0.155968 -0.111466 0)
(-0.157189 -0.134978 0)
(-0.158105 -0.158428 0)
(-0.158521 -0.181635 0)
(-0.158216 -0.204353 0)
(-0.15694 -0.226252 0)
(-0.154428 -0.246907 0)
(-0.150409 -0.265784 0)
(-0.144627 -0.282229 0)
(-0.136862 -0.29546 0)
(-0.126964 -0.304572 0)
(-0.114892 -0.308549 0)
(-0.100757 -0.306294 0)
(-0.0848626 -0.296681 0)
(-0.0677515 -0.278625 0)
(-0.0502269 -0.251174 0)
(-0.0333342 -0.21361 0)
(-0.0183135 -0.165551 0)
(-0.00683256 -0.107034 0)
(-0.00111397 -0.0386136 0)
(-0.127861 0.00465946 0)
(-0.128805 -0.0176472 0)
(-0.130191 -0.0402214 0)
(-0.131982 -0.0630787 0)
(-0.134108 -0.0862209 0)
(-0.136472 -0.109628 0)
(-0.13894 -0.13325 0)
(-0.141342 -0.156996 0)
(-0.143471 -0.180717 0)
(-0.145082 -0.2042 0)
(-0.145894 -0.227141 0)
(-0.145597 -0.249133 0)
(-0.143859 -0.269645 0)
(-0.140346 -0.288003 0)
(-0.134749 -0.303377 0)
(-0.126814 -0.314776 0)
(-0.116393 -0.32105 0)
(-0.103492 -0.320922 0)
(-0.088336 -0.313035 0)
(-0.0714271 -0.296035 0)
(-0.0535888 -0.268676 0)
(-0.0359609 -0.229961 0)
(-0.0199576 -0.17928 0)
(-0.00752204 -0.116531 0)
(-0.00124469 -0.0422665 0)
(-0.101067 0.00531995 0)
(-0.102002 -0.0164162 0)
(-0.103632 -0.0384419 0)
(-0.105927 -0.0608011 0)
(-0.108824 -0.0835268 0)
(-0.11223 -0.106633 0)
(-0.116014 -0.130106 0)
(-0.120006 -0.153895 0)
(-0.123994 -0.177893 0)
(-0.127718 -0.201926 0)
(-0.130871 -0.225733 0)
(-0.133102 -0.248938 0)
(-0.134022 -0.27103 0)
(-0.13322 -0.291334 0)
(-0.130284 -0.308987 0)
(-0.124842 -0.322924 0)
(-0.11661 -0.331868 0)
(-0.105459 -0.334349 0)
(-0.0914934 -0.328747 0)
(-0.0751335 -0.313384 0)
(-0.0571934 -0.286648 0)
(-0.0388973 -0.247173 0)
(-0.0218522 -0.194026 0)
(-0.00833653 -0.126895 0)
(-0.00140338 -0.0463072 0)
(-0.069063 0.00582885 0)
(-0.0699564 -0.0150809 0)
(-0.0718071 -0.0362951 0)
(-0.0745911 -0.0578859 0)
(-0.0782565 -0.079917 0)
(-0.0827193 -0.102437 0)
(-0.087859 -0.125472 0)
(-0.0935133 -0.149013 0)
(-0.0994719 -0.173003 0)
(-0.105472 -0.19732 0)
(-0.111191 -0.221752 0)
(-0.116247 -0.245976 0)
(-0.120203 -0.269521 0)
(-0.122569 -0.291735 0)
(-0.122831 -0.311748 0)
(-0.120482 -0.328443 0)
(-0.115077 -0.340427 0)
(-0.106311 -0.346034 0)
(-0.0941156 -0.343361 0)
(-0.0787751 -0.330346 0)
(-0.061044 -0.304921 0)
(-0.0422034 -0.265229 0)
(-0.0240658 -0.209887 0)
(-0.00931665 -0.138264 0)
(-0.00160045 -0.0508117 0)
(-0.0314029 0.00615191 0)
(-0.0322237 -0.0136715 0)
(-0.0342628 -0.0338063 0)
(-0.0375061 -0.0543506 0)
(-0.0419144 -0.0753972 0)
(-0.0474188 -0.0970289 0)
(-0.0539152 -0.11931 0)
(-0.0612576 -0.142279 0)
(-0.0692503 -0.165931 0)
(-0.0776388 -0.190204 0)
(-0.0861012 -0.214952 0)
(-0.0942408 -0.23992 0)
(-0.101582 -0.264701 0)
(-0.107572 -0.288697 0)
(-0.111594 -0.311065 0)
(-0.113001 -0.330668 0)
(-0.111162 -0.34603 0)
(-0.105552 -0.355302 0)
(-0.0958693 -0.356279 0)
(-0.0821848 -0.346465 0)
(-0.0651163 -0.323229 0)
(-0.0459467 -0.284071 0)
(-0.0266896 -0.226972 0)
(-0.010521 -0.150812 0)
(-0.00185182 -0.0558825 0)
(0.01234 0.0062618 0)
(0.0116187 -0.0122201 0)
(0.00942833 -0.0310116 0)
(0.00577159 -0.050233 0)
(0.000672206 -0.0700029 0)
(-0.00582078 -0.0904348 0)
(-0.0136269 -0.111631 0)
(-0.0226263 -0.133675 0)
(-0.0326501 -0.156618 0)
(-0.0434685 -0.180464 0)
(-0.0547778 -0.205145 0)
(-0.0661873 -0.230489 0)
(-0.0772066 -0.256181 0)
(-0.0872387 -0.281711 0)
(-0.0955815 -0.306307 0)
(-0.101447 -0.328861 0)
(-0.104007 -0.34786 0)
(-0.102476 -0.361313 0)
(-0.0962457 -0.366719 0)
(-0.0850742 -0.361105 0)
(-0.0693286 -0.341166 0)
(-0.0501938 -0.303565 0)
(-0.0298449 -0.24539 0)
(-0.0120359 -0.164767 0)
(-0.0021828 -0.0616616 0)
(0.0625551 0.00614183 0)
(0.0619533 -0.0107586 0)
(0.0596531 -0.0279579 0)
(0.0556456 -0.0455931 0)
(0.0499363 -0.0638033 0)
(0.0425503 -0.082728 0)
(0.0335379 -0.102503 0)
(0.0229832 -0.123253 0)
(0.0110151 -0.145085 0)
(-0.00217837 -0.168072 0)
(-0.016334 -0.192228 0)
(-0.0310935 -0.217483 0)
(-0.0459829 -0.243639 0)
(-0.0603929 -0.270309 0)
(-0.0735658 -0.29684 0)
(-0.0845959 -0.322224 0)
(-0.0924578 -0.344979 0)
(-0.0960769 -0.363041 0)
(-0.0944661 -0.373663 0)
(-0.0869509 -0.373381 0)
(-0.0734854 -0.358111 0)
(-0.0549885 -0.323447 0)
(-0.0336895 -0.265231 0)
(-0.0139912 -0.180419 0)
(-0.00263515 -0.0683516 0)
(0.119577 0.0057897 0)
(0.119105 -0.00931672 0)
(0.11674 -0.0247025 0)
(0.112461 -0.0405147 0)
(0.106254 -0.0569061 0)
(0.0981177 -0.0740346 0)
(0.0880665 -0.092062 0)
(0.0761406 -0.11115 0)
(0.0624167 -0.131454 0)
(0.0470231 -0.153111 0)
(0.0301592 -0.176223 0)
(0.0121197 -0.200831 0)
(-0.00667619 -0.226871 0)
(-0.0256529 -0.254113 0)
(-0.0440459 -0.282084 0)
(-0.0608783 -0.309944 0)
(-0.0749582 -0.336349 0)
(-0.0849199 -0.35927 0)
(-0.0893415 -0.375812 0)
(-0.0869825 -0.382071 0)
(-0.0771724 -0.373116 0)
(-0.0602991 -0.343226 0)
(-0.0384177 -0.28652 0)
(-0.0165852 -0.198142 0)
(-0.00328049 -0.0762508 0)
(0.183667 0.00522082 0)
(0.183323 -0.0079197 0)
(0.180939 -0.0213121 0)
(0.176483 -0.0351059 0)
(0.169924 -0.049459 0)
(0.161229 -0.064539 0)
(0.150376 -0.0805239 0)
(0.137355 -0.0976012 0)
(0.122181 -0.115965 0)
(0.104906 -0.13581 0)
(0.0856431 -0.157318 0)
(0.064592 -0.18064 0)
(0.0420719 -0.205855 0)
(0.0185679 -0.232922 0)
(-0.00521883 -0.261591 0)
(-0.0283169 -0.29128 0)
(-0.0494409 -0.320897 0)
(-0.0669808 -0.348607 0)
(-0.0790663 -0.371546 0)
(-0.083776 -0.385512 0)
(-0.0795638 -0.384755 0)
(-0.0658993 -0.362017 0)
(-0.0442364 -0.309112 0)
(-0.0201213 -0.218399 0)
(-0.00424507 -0.0858144 0)
(0.254991 0.00447046 0)
(0.254758 -0.00658661 0)
(0.252402 -0.0178616 0)
(0.247881 -0.0294985 0)
(0.241144 -0.0416511 0)
(0.232134 -0.0544865 0)
(0.220788 -0.068187 0)
(0.207045 -0.0829527 0)
(0.190852 -0.099002 0)
(0.172177 -0.11657 0)
(0.151027 -0.135905 0)
(0.127478 -0.157253 0)
(0.101704 -0.180835 0)
(0.0740364 -0.206805 0)
(0.0450257 -0.235173 0)
(0.0155274 -0.265685 0)
(-0.0132059 -0.297633 0)
(-0.0394401 -0.329573 0)
(-0.0609297 -0.35893 0)
(-0.0750296 -0.381496 0)
(-0.0790756 -0.390901 0)
(-0.0711126 -0.378275 0)
(-0.0512709 -0.332486 0)
(-0.0250516 -0.241712 0)
(-0.00575393 -0.0977611 0)
(0.333595 0.00359417 0)
(0.333447 -0.00532977 0)
(0.331165 -0.0144334 0)
(0.326702 -0.023847 0)
(0.319994 -0.0337116 0)
(0.310958 -0.0441828 0)
(0.299497 -0.0554347 0)
(0.285502 -0.0676645 0)
(0.268852 -0.0810963 0)
(0.249431 -0.0959849 0)
(0.227131 -0.112618 0)
(0.201881 -0.131312 0)
(0.173678 -0.152405 0)
(0.142638 -0.176228 0)
(0.109066 -0.203056 0)
(0.0735665 -0.233006 0)
(0.0371777 -0.265864 0)
(0.00154037 -0.300786 0)
(-0.0309364 -0.335825 0)
(-0.0570037 -0.367222 0)
(-0.0727593 -0.38848 0)
(-0.0742782 -0.389363 0)
(-0.059284 -0.355325 0)
(-0.0319916 -0.268524 0)
(-0.00819914 -0.113242 0)
(0.419389 0.00266543 0)
(0.419287 -0.00415584 0)
(0.417128 -0.0111167 0)
(0.412861 -0.018327 0)
(0.406412 -0.0259069 0)
(0.397682 -0.0339908 0)
(0.386547 -0.0427324 0)
(0.372858 -0.0523102 0)
(0.356439 -0.0629337 0)
(0.337094 -0.0748514 0)
(0.314608 -0.0883579 0)
(0.288763 -0.103802 0)
(0.259359 -0.12159 0)
(0.226256 -0.142185 0)
(0.189437 -0.166083 0)
(0.149115 -0.19376 0)
(0.105894 -0.22554 0)
(0.061008 -0.261345 0)
(0.0166348 -0.300211 0)
(-0.0237727 -0.339449 0)
(-0.0552835 -0.373291 0)
(-0.0716706 -0.390993 0)
(-0.0669124 -0.374742 0)
(-0.0415363 -0.298749 0)
(-0.0121936 -0.134045 0)
(0.512121 0.00176996 0)
(0.512025 -0.00306913 0)
(0.510041 -0.00800849 0)
(0.50612 -0.0131329 0)
(0.500184 -0.0185356 0)
(0.492126 -0.0243227 0)
(0.481808 -0.0306171 0)
(0.469057 -0.0375649 0)
(0.45366 -0.0453423 0)
(0.435363 -0.0541652 0)
(0.413866 -0.0643002 0)
(0.388828 -0.0760791 0)
(0.359869 -0.0899154 0)
(0.326592 -0.106322 0)
(0.288619 -0.125924 0)
(0.245676 -0.149458 0)
(0.197731 -0.177725 0)
(0.145252 -0.21144 0)
(0.0896123 -0.250872 0)
(0.0336957 -0.295039 0)
(-0.0173563 -0.340117 0)
(-0.0554203 -0.376583 0)
(-0.0697303 -0.384945 0)