/*--------------------------------*- C++ -*----------------------------------*\
| =========                 |                                                 |
| \\      /  F ield         | OpenFOAM: The Open Source CFD Toolbox           |
|  \\    /   O peration     | Version:  v2012                                 |
|   \\  /    A nd           | Website:  www.openfoam.com                      |
|    \\/     M anipulation  |                                                 |
\*---------------------------------------------------------------------------*/
FoamFile
{
    version     2.0;
    format      ascii;
    class       volScalarField;
    location    "0.45";
    object      p;
}
// * * * * * * * * * * * * * * * * * * * * * * * * * * * * * * * * * * * * * //

dimensions      [0 2 -2 0 0 0 0];


internalField   nonuniform List<scalar> 
1250
(
7.13434e-06
-0.000554152
-0.00229204
-0.00491551
-0.00800664
-0.0112356
-0.0143451
-0.0171349
-0.0194536
-0.0211903
-0.0222672
-0.0226338
-0.0222623
-0.0211439
-0.0192859
-0.0167094
-0.0134471
-0.00954228
-0.0050467
-2.00088e-05
0.00547146
0.0113555
0.017555
0.0239885
0.030571
0.000577002
1.38402e-05
-0.00142679
-0.00352211
-0.00597756
-0.00855177
-0.0110423
-0.0132823
-0.0151393
-0.0165122
-0.0173268
-0.0175328
-0.0170999
-0.0160151
-0.0142804
-0.011911
-0.00893308
-0.00538283
-0.00130493
0.00324846
0.00821863
0.0135412
0.019147
0.0249628
0.0309121
0.00231793
0.00145444
3.54507e-06
-0.00188926
-0.00403627
-0.00625434
-0.0083823
-0.0102834
-0.0118455
-0.0129799
-0.0136199
-0.0137188
-0.013247
-0.0121907
-0.0105495
-0.008335
-0.00556942
-0.00228411
0.00148138
0.00568039
0.01026
0.0151618
0.0203227
0.025676
0.0311515
0.00496988
0.00356404
0.0018729
-4.9383e-05
-0.00211909
-0.00419443
-0.00614574
-0.00786331
-0.00925489
-0.0102458
-0.0107789
-0.0108131
-0.0103224
-0.00929403
-0.0077274
-0.00563269
-0.00302966
5.33863e-05
0.00358055
0.00750922
0.0117908
0.0163717
0.0211936
0.0261948
0.0313102
0.00815301
0.00607587
0.00401694
0.00193793
-0.000180793
-0.00223124
-0.00411026
-0.00573291
-0.00702625
-0.00792986
-0.00839678
-0.00839313
-0.00789737
-0.00689935
-0.0053994
-0.00340734
-0.000941599
0.00197166
0.00529929
0.00900193
0.0130347
0.0173478
0.0218871
0.0265953
0.0314117
0.0115784
0.00877549
0.00627267
0.00394846
0.00168757
-0.000428621
-0.00231845
-0.00391882
-0.0051745
-0.00603871
-0.00647484
-0.00645664
-0.00596784
-0.00500171
-0.0035604
-0.00165429
0.000698669
0.00347361
0.00663937
0.0101591
0.0139907
0.0180878
0.0223996
0.0268723
0.0314491
0.0150254
0.0114842
0.008495
0.00586468
0.00339286
0.00114104
-0.000825856
-0.00246328
-0.00373166
-0.00459677
-0.00503193
-0.00501855
-0.00454601
-0.00361151
-0.00221966
-0.000382111
0.00188295
0.00455123
0.00759281
0.0109726
0.0146509
0.0185835
0.0227227
0.0270173
0.0314137
0.0183228
0.0140522
0.0105569
0.00758223
0.00485267
0.00241536
0.000322552
-0.00139662
-0.00271619
-0.00361312
-0.00406999
-0.00407558
-0.00362497
-0.00271955
-0.00136684
0.000419784
0.00262131
0.00521346
0.00816694
0.0114479
0.015018
0.0188352
0.0228537
0.0270248
0.0312968
0.0213364
0.0163545
0.0123471
0.00900565
0.00598785
0.00333081
0.00107748
-0.000755729
-0.00215443
-0.00310549
-0.00359987
-0.00363329
-0.0032064
-0.00232484
-0.000999246
0.000754889
0.00291735
0.00546335
0.00836379
0.0115854
0.015091
0.0188398
0.0227875
0.026887
0.0310885
0.0239594
0.0182864
0.0137679
0.0100475
0.00672237
0.00382296
0.00138556
-0.000583864
-0.00208078
-0.00310069
-0.0036421
-0.00370716
-0.00330182
-0.00243594
-0.00112337
0.000618049
0.00276658
0.0052966
0.00817874
0.0113799
0.0148635
0.0185896
0.022515
0.0265936
0.0307766
0.0261036
0.0197577
0.0147325
0.0106272
0.00698368
0.00382789
0.00119154
-0.000928044
-0.00253471
-0.00363152
-0.00422374
-0.00431944
-0.00392956
-0.00306809
-0.00175214
-1.98702e-06
0.00215885
0.00470361
0.00760233
0.0108218
0.0143255
0.0180739
0.0220245
0.0261317
0.0303476
0.0276931
0.0206887
0.0151617
0.0106696
0.00670199
0.00328218
0.000438733
-0.00183823
-0.0035598
-0.0047357
-0.00537728
-0.00549808
-0.00511378
-0.00424232
-0.00290406
-0.00112184
0.00107891
0.00367006
0.00662076
0.0098973
0.0134631
0.0172786
0.0213016
0.0254866
0.0297861
0.0286593
0.0210063
0.0149817
0.0101028
0.00580917
0.00212236
-0.00093104
-0.00336712
-0.00520334
-0.00645535
-0.00714012
-0.00727625
-0.00688392
-0.00598492
-0.00460283
-0.0027631
-0.000493218
0.00217717
0.00521611
0.00858916
0.0122593
0.0161868
0.0203292
0.0246411
0.0290747
0.0289379
0.0206413
0.0141218
0.00885714
0.00423771
0.000284367
-0.00297771
-0.00557012
-0.00751607
-0.00883668
-0.00955412
-0.00969181
-0.00927424
-0.00832699
-0.00687684
-0.00495191
-0.00258181
0.000202117
0.00336665
0.00687642
0.0106938
0.0147785
0.0190877
0.0235759
0.0281946
0.0284655
0.0195259
0.0125122
0.00686286
0.00191958
-0.00229725
-0.00576337
-0.00850546
-0.0105521
-0.0119297
-0.0126652
-0.0127868
-0.0123233
-0.0113039
-0.00975866
-0.00771841
-0.00521502
-0.00228159
0.00104724
0.00473503
0.00874328
0.0130311
0.0175553
0.0222695
0.0271248
0.0271783
0.0175916
0.0100824
0.00404935
-0.00121484
-0.00569006
-0.00935274
-0.0122345
-0.0143691
-0.015788
-0.0165232
-0.0166074
-0.0160736
-0.0149549
-0.0132846
-0.0110964
-0.00842435
-0.00530359
-0.00177021
0.00213816
0.00638209
0.01092
0.0157078
0.0206987
0.0258431
0.0250097
0.0147679
0.00675979
0.000343594
-0.00523782
-0.00996458
-0.0138138
-0.0168219
-0.0190282
-0.0204691
-0.0211816
-0.0212032
-0.0205712
-0.0193226
-0.0174942
-0.0151225
-0.0122442
-0.0088962
-0.00511629
-0.000943309
0.00358229
0.00841811
0.0135194
0.0188386
0.0243254
0.0218896
0.0109807
0.00246824
-0.004331
-0.0102253
-0.0151951
-0.0192182
-0.0223364
-0.0245945
-0.0260341
-0.0266975
-0.0266273
-0.0258653
-0.0244527
-0.0224297
-0.0198362
-0.0167112
-0.0130938
-0.00902342
-0.0045402
0.000314441
0.00549728
0.0109629
0.0166631
0.0225466
0.0177427
0.00615109
-0.00287311
-0.0100557
-0.0162578
-0.0214604
-0.0256423
-0.0288509
-0.0311368
-0.0325477
-0.0331314
-0.0329359
-0.0320079
-0.0303931
-0.0281356
-0.0252785
-0.0218635
-0.0179321
-0.0135252
-0.00868428
-0.00345176
0.00212845
0.00801032
0.0141451
0.020481
0.0124877
0.000194163
-0.00935111
-0.0169177
-0.0234217
-0.0288448
-0.0331675
-0.036443
-0.0387288
-0.0400788
-0.0405472
-0.040188
-0.0390533
-0.0371937
-0.0346576
-0.0314915
-0.0277401
-0.0234471
-0.0186554
-0.0134074
-0.00774661
-0.00171739
0.00463381
0.0112579
0.0181026
0.00603655
-0.00698222
-0.0170598
-0.0250114
-0.0318101
-0.0374392
-0.041881
-0.0451957
-0.0474481
-0.0486998
-0.0490118
-0.0484449
-0.0470575
-0.0449055
-0.0420419
-0.0385173
-0.0343794
-0.0296744
-0.0244468
-0.0187405
-0.0125993
-0.00606812
0.000806476
0.00797544
0.0153864
-0.00170725
-0.0154787
-0.026102
-0.0344394
-0.0415243
-0.0473419
-0.0518768
-0.0551977
-0.0573778
-0.0584871
-0.058595
-0.0577699
-0.0560773
-0.0535793
-0.0503342
-0.0463968
-0.0418183
-0.0366474
-0.0309302
-0.0247118
-0.0180365
-0.0109493
-0.0034963
0.00427376
0.0123089
-0.0108495
-0.025406
-0.0365906
-0.0453147
-0.0526752
-0.0586597
-0.0632568
-0.0665443
-0.0686057
-0.0695208
-0.069369
-0.0682274
-0.0661697
-0.0632653
-0.0595783
-0.0551683
-0.0500904
-0.0443958
-0.0381323
-0.0313459
-0.0240811
-0.0163824
-0.00829541
0.000132367
0.00884996
-0.0215068
-0.0368867
-0.0486509
-0.057762
-0.0653847
-0.0715101
-0.0761314
-0.0793378
-0.0812251
-0.0818848
-0.0814077
-0.0798818
-0.0773904
-0.0740108
-0.0698143
-0.0648657
-0.0592243
-0.0529438
-0.0460739
-0.0386611
-0.0307498
-0.0223835
-0.0136063
-0.00446413
0.00499384
-0.0338089
-0.0500576
-0.0624227
-0.0719206
-0.0797885
-0.0860219
-0.090621
-0.0936885
-0.0953348
-0.0956659
-0.0947864
-0.092797
-0.0897922
-0.0858592
-0.0810768
-0.0755163
-0.069241
-0.0623078
-0.0547678
-0.0466678
-0.0380512
-0.0289602
-0.0194367
-0.00952413
0.000731315
-0.0479006
-0.0650728
-0.0780638
-0.0879471
-0.0960379
-0.102338
-0.106858
-0.109715
-0.111039
-0.110954
-0.10958
-0.107034
-0.103424
-0.0988471
-0.0933926
-0.0871381
-0.0801519
-0.0724937
-0.064216
-0.0553651
-0.0459833
-0.0361103
-0.0257849
-0.0150468
-0.00393841
-0.0639452
-0.0821071
-0.0957538
-0.106019
-0.114304
-0.120619
-0.124986
-0.127546
-0.128449
-0.127841
-0.125863
-0.12265
-0.118326
-0.113002
-0.106777
-0.0997373
-0.0919552
-0.0834938
-0.0744064
-0.0647386
-0.0545305
-0.0438182
-0.0326364
-0.0210197
-0.00900546
-0.0821292
-0.101362
-0.115699
-0.126339
-0.13478
-0.141043
-0.145168
-0.14732
-0.14768
-0.146419
-0.143705
-0.139694
-0.13453
-0.12834
-0.121233
-0.113304
-0.104633
-0.0952834
-0.0853101
-0.0747569
-0.0636605
-0.0520524
-0.0399616
-0.0274163
-0.0144469
-0.102668
-0.123071
-0.13814
-0.149145
-0.157689
-0.163814
-0.167579
-0.169187
-0.168852
-0.166781
-0.163171
-0.158207
-0.152054
-0.144858
-0.136742
-0.127809
-0.118145
-0.107817
-0.0968772
-0.0853681
-0.0733214
-0.0607625
-0.047713
-0.0341931
-0.0202243
-0.125812
-0.147511
-0.163361
-0.17471
-0.183289
-0.189161
-0.192419
-0.193309
-0.192091
-0.189014
-0.184316
-0.178212
-0.170897
-0.162534
-0.153263
-0.143198
-0.132428
-0.121023
-0.109033
-0.0964962
-0.083438
-0.069876
-0.0558225
-0.0412874
-0.0262816
-0.151862
-0.175011
-0.191699
-0.203364
-0.211881
-0.217351
-0.219908
-0.219859
-0.217523
-0.213202
-0.207181
-0.199717
-0.191033
-0.181318
-0.170729
-0.159388
-0.147389
-0.134801
-0.121674
-0.108038
-0.093909
-0.0792958
-0.0641987
-0.0486154
-0.0325432
-0.181177
-0.205973
-0.223566
-0.235497
-0.24382
-0.248686
-0.250293
-0.249024
-0.245273
-0.239414
-0.231787
-0.222697
-0.212406
-0.201127
-0.189033
-0.176257
-0.162896
-0.149018
-0.134665
-0.119858
-0.104604
-0.0888977
-0.0727256
-0.0560701
-0.0389128
-0.214203
-0.240891
-0.259465
-0.271585
-0.279529
-0.283522
-0.283849
-0.280997
-0.275462
-0.267699
-0.258125
-0.247097
-0.234919
-0.221834
-0.208029
-0.193646
-0.178782
-0.1635
-0.147832
-0.131789
-0.115362
-0.0985291
-0.0812608
-0.0635211
-0.0452729
-0.251493
-0.280388
-0.300022
-0.31221
-0.319513
-0.322265
-0.320879
-0.31598
-0.308192
-0.29808
-0.286145
-0.272812
-0.258426
-0.24326
-0.227518
-0.211343
-0.19483
-0.178031
-0.160966
-0.143627
-0.125989
-0.108009
-0.0896365
-0.0708152
-0.051486
-0.293753
-0.325254
-0.34603
-0.358093
-0.364379
-0.365391
-0.361716
-0.35417
-0.343542
-0.330532
-0.315743
-0.299673
-0.282715
-0.265167
-0.247242
-0.229083
-0.210774
-0.192352
-0.173814
-0.155134
-0.13626
-0.117127
-0.0976609
-0.0777788
-0.0573974
-0.341902
-0.376518
-0.398502
-0.410134
-0.414863
-0.413443
-0.406714
-0.395747
-0.381542
-0.364966
-0.346738
-0.327435
-0.307495
-0.287237
-0.266874
-0.246539
-0.226295
-0.206153
-0.186086
-0.166035
-0.145922
-0.125653
-0.105123
-0.0842221
-0.0628395
-0.397155
-0.435538
-0.458753
-0.469468
-0.471852
-0.467041
-0.456237
-0.440848
-0.422147
-0.401196
-0.378845
-0.355749
-0.332381
-0.309068
-0.286011
-0.263317
-0.241015
-0.219081
-0.19745
-0.176028
-0.154698
-0.133333
-0.111796
-0.089946
-0.0676388
-0.461161
-0.504143
-0.528512
-0.537528
-0.536409
-0.526869
-0.510623
-0.489529
-0.465194
-0.438904
-0.411644
-0.384135
-0.356869
-0.330156
-0.304164
-0.278953
-0.254503
-0.230739
-0.207546
-0.184784
-0.162295
-0.139909
-0.117453
-0.0947509
-0.0716254
-0.536211
-0.584844
-0.61008
-0.616135
-0.609794
-0.593652
-0.570141
-0.541701
-0.51034
-0.477583
-0.444536
-0.411956
-0.380319
-0.349884
-0.320754
-0.292915
-0.266276
-0.240693
-0.215988
-0.191965
-0.168413
-0.14512
-0.12187
-0.098449
-0.074644
-0.625595
-0.681168
-0.706553
-0.707586
-0.693458
-0.668087
-0.634889
-0.597034
-0.556978
-0.516469
-0.47669
-0.438377
-0.401931
-0.367512
-0.33511
-0.304606
-0.275809
-0.248486
-0.222381
-0.19723
-0.172766
-0.148724
-0.124846
-0.100877
-0.0765672
-0.734196
-0.798175
-0.822122
-0.814747
-0.788986
-0.750712
-0.704645
-0.654812
-0.604113
-0.55445
-0.506984
-0.462332
-0.420734
-0.382175
-0.34648
-0.313379
-0.282551
-0.253653
-0.226337
-0.20026
-0.175091
-0.150512
-0.126216
-0.101911
-0.0773092
-0.869584
-0.943286
-0.962469
-0.941088
-0.89793
-0.841662
-0.778616
-0.713722
-0.65021
-0.589965
-0.533945
-0.482497
-0.435572
-0.392888
-0.354038
-0.318553
-0.285948
-0.255749
-0.2275
-0.200775
-0.175173
-0.150322
-0.125869
-0.101481
-0.0768389
-1.04408
-1.1276
-1.13523
-1.09058
-1.02144
-0.940233
-0.855058
-0.771569
-0.693003
-0.620887
-0.555693
-0.497269
-0.445117
-0.398576
-0.356925
-0.31945
-0.285473
-0.254369
-0.225569
-0.198557
-0.172864
-0.148063
-0.12376
-0.0995861
-0.0751912
-1.27895
-1.368
-1.3503
-1.26714
-1.15945
-1.04412
-0.930692
-0.824881
-0.729256
-0.644412
-0.569903
-0.504782
-0.447908
-0.398111
-0.354289
-0.315437
-0.280666
-0.249192
-0.22033
-0.193476
-0.168101
-0.143727
-0.119925
-0.0962987
-0.0724736
-1.61291
-1.69018
-1.61933
-1.4729
-1.30891
-1.14803
-0.999748
-0.868346
-0.754479
-0.656936
-0.573785
-0.502933
-0.442387
-0.390366
-0.345329
-0.305964
-0.271165
-0.239996
-0.211666
-0.185499
-0.160911
-0.137391
-0.114482
-0.0917695
-0.0688647
-2.11671
-2.13163
-1.95349
-1.7052
-1.46123
-1.24197
-1.05307
-0.894445
-0.762875
-0.65417
-0.564256
-0.489555
-0.427069
-0.374348
-0.329408
-0.290646
-0.256765
-0.226707
-0.199598
-0.174712
-0.151433
-0.129229
-0.107633
-0.0862224
-0.0646078
-2.91883
-2.74199
-2.35914
-1.95416
-1.60135
-1.31131
-1.07885
-0.894524
-0.748468
-0.632175
-0.538833
-0.463166
-0.401142
-0.349686
-0.306439
-0.269578
-0.237675
-0.2096
-0.184439
-0.161448
-0.140004
-0.119578
-0.0997072
-0.0799794
-0.0600142
-4.30829
-3.58025
-2.81236
-2.18394
-1.69676
-1.33087
-1.05968
-0.85742
-0.704477
-0.58703
-0.495393
-0.422747
-0.364246
-0.316406
-0.276669
-0.243126
-0.214321
-0.189124
-0.166641
-0.146149
-0.127051
-0.108844
-0.0910905
-0.0734028
-0.0554244
-7.0462
-4.67305
-3.13913
-2.23595
-1.63553
-1.22712
-0.948417
-0.752886
-0.611063
-0.505263
-0.424412
-0.361286
-0.311041
-0.270328
-0.236762
-0.208595
-0.184514
-0.163509
-0.144785
-0.127701
-0.11173
-0.096429
-0.0814125
-0.0663384
-0.0508926
-11.6814
-5.75834
-2.98805
-1.87143
-1.28235
-0.928272
-0.706876
-0.559703
-0.455633
-0.378753
-0.320179
-0.274475
-0.238103
-0.208644
-0.184371
-0.164011
-0.146592
-0.13136
-0.117714
-0.105163
-0.0932991
-0.0817759
-0.0702899
-0.0585692
-0.046363
)
;

boundaryField
{
    movingWall
    {
        type            zeroGradient;
    }
    fixedWalls
    {
        type            zeroGradient;
    }
    frontAndBack
    {
        type            empty;
    }
    procBoundary0to1
    {
        type            processor;
        value           nonuniform List<scalar> 
50
(
0.0372151
0.0369159
0.0366769
0.0364729
0.0362737
0.036071
0.0358557
0.0356162
0.0353399
0.0350133
0.0346217
0.0341495
0.0335794
0.0328927
0.0320695
0.0310882
0.0299259
0.0285588
0.0269624
0.0251118
0.0229829
0.0205531
0.0178021
0.0147141
0.0112788
0.00749339
0.00336497
-0.00108773
-0.00583195
-0.010819
-0.0159826
-0.0212377
-0.026481
-0.0315915
-0.0364339
-0.0408636
-0.044733
-0.0479012
-0.0502452
-0.0516719
-0.0521317
-0.0516299
-0.0502365
-0.0480902
-0.0453965
-0.0424162
-0.03945
-0.0368168
-0.0347768
-0.0334322
)
;
    }
}


// ************************************************************************* //
