/*--------------------------------*- C++ -*----------------------------------*\
| =========                 |                                                 |
| \\      /  F ield         | OpenFOAM: The Open Source CFD Toolbox           |
|  \\    /   O peration     | Version:  v2012                                 |
|   \\  /    A nd           | Website:  www.openfoam.com                      |
|    \\/     M anipulation  |                                                 |
\*---------------------------------------------------------------------------*/
FoamFile
{
    version     2.0;
    format      ascii;
    class       surfaceScalarField;
    location    "0.45";
    object      phi;
}
// * * * * * * * * * * * * * * * * * * * * * * * * * * * * * * * * * * * * * //

dimensions      [0 3 -1 0 0 0 0];
oriented        oriented;


internalField   nonuniform List<scalar> 
2425
(
1.17857e-09
-1.18768e-09
2.41884e-09
-1.24028e-09
2.51892e-09
-1.00081e-10
1.04053e-09
1.4784e-09
-2.09679e-09
3.13731e-09
-6.80501e-09
4.70822e-09
-1.29138e-08
6.10878e-09
-2.02153e-08
7.30152e-09
-2.84875e-08
8.27224e-09
-3.75065e-08
9.01894e-09
-4.70528e-08
9.54629e-09
-5.69156e-08
9.86287e-09
-6.68952e-08
9.97957e-09
-7.68038e-08
9.90865e-09
-8.6467e-08
9.66318e-09
-9.57238e-08
9.25673e-09
-1.04427e-07
8.70313e-09
-1.12443e-07
8.01636e-09
-1.19654e-07
7.21051e-09
-1.25953e-07
6.29975e-09
-1.31252e-07
5.29841e-09
-1.35473e-07
4.22099e-09
-1.38555e-07
3.08225e-09
-1.40452e-07
1.89726e-09
6.81485e-10
1.25014e-09
-2.43782e-09
1.44907e-09
-1.4392e-09
-1.16046e-09
2.50945e-09
-7.3862e-09
7.70414e-09
-1.74785e-08
1.32297e-08
-3.13292e-08
1.85589e-08
-4.86127e-08
2.33923e-08
-6.88791e-08
2.75679e-08
-9.16122e-08
3.10053e-08
-1.16266e-07
3.36729e-08
-1.42289e-07
3.55689e-08
-1.69137e-07
3.67109e-08
-1.96286e-07
3.71284e-08
-2.23236e-07
3.68595e-08
-2.4952e-07
3.59471e-08
-2.74701e-07
3.44379e-08
-2.98379e-07
3.23809e-08
-3.20189e-07
2.98266e-08
-3.39806e-07
2.68268e-08
-3.5694e-07
2.34343e-08
-3.71344e-07
1.97026e-08
-3.8281e-07
1.56865e-08
-3.91169e-07
1.14417e-08
-3.96297e-07
7.02532e-09
2.49589e-09
1.54531e-10
-2.59235e-09
-2.40582e-09
1.12115e-09
-9.35581e-09
9.45944e-09
-2.15334e-08
1.98817e-08
-3.92049e-08
3.09011e-08
-6.22238e-08
4.15778e-08
-9.01605e-08
5.1329e-08
-1.22403e-07
5.98103e-08
-1.58229e-07
6.68312e-08
-1.96856e-07
7.23002e-08
-2.37479e-07
7.6192e-08
-2.79293e-07
7.85252e-08
-3.21513e-07
7.93485e-08
-3.63385e-07
7.87312e-08
-4.04195e-07
7.67566e-08
-4.43275e-07
7.3518e-08
-4.80009e-07
6.91155e-08
-5.13837e-07
6.36541e-08
-5.44253e-07
5.72427e-08
-5.70811e-07
4.99931e-08
-5.93128e-07
4.20196e-08
-6.10881e-07
3.34394e-08
-6.23812e-07
2.43722e-08
-6.31727e-07
1.49408e-08
5.27088e-09
-1.3782e-09
-1.21416e-09
-7.52824e-09
7.27119e-09
-1.97187e-08
2.16499e-08
-3.85911e-08
3.87541e-08
-6.42908e-08
5.66008e-08
-9.65694e-08
7.38565e-08
-1.34884e-07
8.96439e-08
-1.78486e-07
1.03412e-07
-2.2649e-07
1.14835e-07
-2.77929e-07
1.2374e-07
-3.318e-07
1.30062e-07
-3.87089e-07
1.33814e-07
-4.428e-07
1.3506e-07
-4.97971e-07
1.33902e-07
-5.51684e-07
1.3047e-07
-6.0308e-07
1.24914e-07
-6.51361e-07
1.17397e-07
-6.95799e-07
1.08092e-07
-7.35737e-07
9.71806e-08
-7.70595e-07
8.48515e-08
-7.99873e-07
7.12978e-08
-8.23152e-07
5.67178e-08
-8.40095e-07
4.1315e-08
-8.50452e-07
2.52982e-08
8.88104e-09
-3.02169e-09
1.80753e-09
-1.31166e-08
1.73661e-08
-3.09968e-08
3.95301e-08
-5.69713e-08
6.47286e-08
-9.09636e-08
9.05931e-08
-1.3256e-07
1.15453e-07
-1.81077e-07
1.38161e-07
-2.35625e-07
1.5796e-07
-2.95172e-07
1.74382e-07
-3.58597e-07
1.87164e-07
-4.24729e-07
1.96194e-07
-4.92385e-07
2.0147e-07
-5.60395e-07
2.0307e-07
-6.27625e-07
2.01132e-07
-6.92989e-07
1.95835e-07
-7.55467e-07
1.87392e-07
-8.14109e-07
1.76038e-07
-8.68046e-07
1.62028e-07
-9.16494e-07
1.45629e-07
-9.5876e-07
1.27118e-07
-9.94245e-07
1.06783e-07
-1.02245e-06
8.49196e-08
-1.04296e-06
6.18322e-08
-1.0555e-06
3.78325e-08
1.32401e-08
-4.64229e-09
6.44982e-09
-1.87594e-08
3.14833e-08
-4.24838e-08
6.32545e-08
-7.57251e-08
9.79699e-08
-1.18119e-07
1.32987e-07
-1.69037e-07
1.66371e-07
-2.27618e-07
1.96742e-07
-2.92821e-07
2.23162e-07
-3.63465e-07
2.45027e-07
-4.38285e-07
2.61984e-07
-5.15965e-07
2.73874e-07
-5.95174e-07
2.80679e-07
-6.74595e-07
2.82492e-07
-7.52949e-07
2.79486e-07
-8.29011e-07
2.71896e-07
-9.01623e-07
2.60004e-07
-9.69709e-07
2.44125e-07
-1.03228e-06
2.24602e-07
-1.08845e-06
2.018e-07
-1.13743e-06
1.76097e-07
-1.17854e-06
1.47888e-07
-1.2112e-06
1.17579e-07
-1.23496e-06
8.559e-08
-1.24947e-06
5.23488e-08
1.82963e-08
-6.18818e-09
1.2638e-08
-2.42619e-08
4.9557e-08
-5.38099e-08
9.28024e-08
-9.4323e-08
1.38483e-07
-1.45115e-07
1.83779e-07
-2.05303e-07
2.26559e-07
-2.73824e-07
2.65264e-07
-3.49462e-07
2.988e-07
-4.30884e-07
3.26448e-07
-5.16678e-07
3.47778e-07
-6.05392e-07
3.62587e-07
-6.95562e-07
3.70849e-07
-7.85741e-07
3.72671e-07
-8.74524e-07
3.68269e-07
-9.60566e-07
3.57938e-07
-1.0426e-06
3.42033e-07
-1.11943e-06
3.20959e-07
-1.18998e-06
2.95155e-07
-1.25327e-06
2.6509e-07
-1.30843e-06
2.31257e-07
-1.35471e-06
1.94166e-07
-1.39148e-06
1.54347e-07
-1.41823e-06
1.12342e-07
-1.43459e-06
6.87116e-08
2.40282e-08
-7.6473e-09
2.02853e-08
-2.95514e-08
7.14611e-08
-6.48125e-08
1.28064e-07
-1.12511e-07
1.86182e-07
-1.71624e-07
2.42892e-07
-2.40996e-07
2.95931e-07
-3.19336e-07
3.43604e-07
-4.05236e-07
3.84701e-07
-4.97199e-07
4.18411e-07
-5.93664e-07
4.44243e-07
-6.93042e-07
4.61966e-07
-7.93744e-07
4.7155e-07
-8.94204e-07
4.73131e-07
-9.92905e-07
4.6697e-07
-1.0884e-06
4.53429e-07
-1.17931e-06
4.32945e-07
-1.26436e-06
4.06017e-07
-1.3424e-06
3.7319e-07
-1.41236e-06
3.35047e-07
-1.4733e-06
2.922e-07
-1.52442e-06
2.45286e-07
-1.56504e-06
1.94964e-07
-1.59461e-06
1.41915e-07
-1.61273e-06
8.68354e-08
3.0441e-08
-9.02547e-09
2.93108e-08
-3.46192e-08
9.70548e-08
-7.54483e-08
1.68893e-07
-1.30204e-07
2.40938e-07
-1.97527e-07
3.10215e-07
-2.75975e-07
3.74379e-07
-3.64017e-07
4.31645e-07
-4.60038e-07
4.80722e-07
-5.62363e-07
5.20736e-07
-6.69277e-07
5.51158e-07
-7.79054e-07
5.71742e-07
-8.89979e-07
5.82475e-07
-1.00037e-06
5.83526e-07
-1.10862e-06
5.75214e-07
-1.21317e-06
5.57977e-07
-1.31256e-06
5.32341e-07
-1.40546e-06
4.98909e-07
-1.4906e-06
4.58338e-07
-1.56689e-06
4.11332e-07
-1.63332e-06
3.5863e-07
-1.68904e-06
3.01004e-07
-1.73333e-06
2.39252e-07
-1.7656e-06
1.74194e-07
-1.78545e-06
1.06676e-07
3.75629e-08
-1.03356e-08
3.96464e-08
-3.94881e-08
1.26207e-07
-8.57393e-08
2.15144e-07
-1.47415e-07
3.02614e-07
-2.22827e-07
3.85627e-07
-3.10242e-07
4.61794e-07
-4.07878e-07
5.2928e-07
-5.13903e-07
5.86747e-07
-6.26454e-07
6.33287e-07
-7.43655e-07
6.68359e-07
-8.63637e-07
6.91724e-07
-9.8456e-07
7.03398e-07
-1.10464e-06
7.03603e-07
-1.22215e-06
6.92728e-07
-1.33547e-06
6.71294e-07
-1.44306e-06
6.3993e-07
-1.54349e-06
5.99347e-07
-1.63548e-06
5.50326e-07
-1.71785e-06
4.93697e-07
-1.78955e-06
4.30335e-07
-1.8497e-06
3.6115e-07
-1.89753e-06
2.87086e-07
-1.93245e-06
2.09111e-07
-1.95399e-06
1.28223e-07
4.54425e-08
-1.15929e-08
5.12393e-08
-4.41953e-08
1.5881e-07
-9.57411e-08
2.6669e-07
-1.64213e-07
3.71086e-07
-2.47602e-07
4.69015e-07
-3.43885e-07
5.58077e-07
-4.51021e-07
6.36417e-07
-5.66956e-07
7.02681e-07
-6.89629e-07
7.55961e-07
-8.16995e-07
7.95725e-07
-9.47038e-07
8.21767e-07
-1.07779e-06
8.34154e-07
-1.20737e-06
8.33176e-07
-1.33394e-06
8.19305e-07
-1.45581e-06
7.93162e-07
-1.57137e-06
7.55487e-07
-1.67913e-06
7.07112e-07
-1.77775e-06
6.48946e-07
-1.86601e-06
5.81955e-07
-1.94283e-06
5.07155e-07
-2.00728e-06
4.25602e-07
-2.05859e-06
3.38388e-07
-2.09611e-06
2.46634e-07
-2.11938e-06
1.51493e-07
5.41457e-08
-1.28124e-08
6.40517e-08
-4.87832e-08
1.9478e-07
-1.05525e-07
3.23431e-07
-1.80694e-07
4.46255e-07
-2.71969e-07
5.60291e-07
-3.77039e-07
6.63148e-07
-4.93603e-07
7.5298e-07
-6.19372e-07
8.28451e-07
-7.52086e-07
8.88675e-07
-8.89523e-07
9.33162e-07
-1.02952e-06
9.61762e-07
-1.16998e-06
9.74615e-07
-1.3089e-06
9.72097e-07
-1.44438e-06
9.54783e-07
-1.57462e-06
9.23408e-07
-1.69797e-06
8.78835e-07
-1.81289e-06
8.22028e-07
-1.91798e-06
7.54033e-07
-2.01198e-06
6.7596e-07
-2.0938e-06
5.88971e-07
-2.16247e-06
4.94272e-07
-2.21719e-06
3.93107e-07
-2.2573e-06
2.86753e-07
-2.28233e-06
1.76521e-07
6.37529e-08
-1.40083e-08
7.806e-08
-5.32943e-08
2.34066e-07
-1.15165e-07
3.85302e-07
-1.96964e-07
5.28054e-07
-2.96064e-07
6.5939e-07
-4.09865e-07
7.76948e-07
-5.35801e-07
8.78917e-07
-6.7135e-07
9.63999e-07
-8.1404e-07
1.03137e-06
-9.61472e-07
1.08059e-06
-1.11133e-06
1.11162e-06
-1.26138e-06
1.12467e-06
-1.40952e-06
1.12024e-06
-1.55376e-06
1.09902e-06
-1.69223e-06
1.06188e-06
-1.82321e-06
1.00982e-06
-1.94512e-06
9.43942e-07
-2.05653e-06
8.65444e-07
-2.15616e-06
7.75586e-07
-2.24287e-06
6.75681e-07
-2.31569e-06
5.67089e-07
-2.37379e-06
4.51209e-07
-2.41651e-06
3.29475e-07
-2.44335e-06
2.03357e-07
7.43565e-08
-1.51934e-08
9.32533e-08
-5.77691e-08
2.76642e-07
-1.24737e-07
4.5227e-07
-2.13133e-07
6.1645e-07
-3.20025e-07
7.66282e-07
-4.42525e-07
8.99449e-07
-5.77801e-07
1.01419e-06
-7.23087e-07
1.10929e-06
-8.75702e-07
1.18398e-06
-1.03306e-06
1.23795e-06
-1.19268e-06
1.27124e-06
-1.35222e-06
1.28421e-06
-1.50945e-06
1.27747e-06
-1.66231e-06
1.25187e-06
-1.80885e-06
1.20842e-06
-1.94731e-06
1.14828e-06
-2.07606e-06
1.0727e-06
-2.19365e-06
9.83034e-07
-2.29878e-06
8.80707e-07
-2.39028e-06
7.67185e-07
-2.46718e-06
6.43986e-07
-2.52863e-06
5.12665e-07
-2.57397e-06
3.74812e-07
-2.60267e-06
2.32056e-07
8.60575e-08
-1.63792e-08
1.09632e-07
-6.2245e-08
3.22508e-07
-1.34311e-07
5.24336e-07
-2.29304e-07
7.11443e-07
-3.43987e-07
8.80965e-07
-4.7518e-07
1.03064e-06
-6.1978e-07
1.15879e-06
-7.74774e-07
1.26428e-06
-9.37262e-07
1.34647e-06
-1.10447e-06
1.40516e-06
-1.27377e-06
1.44054e-06
-1.44267e-06
1.45311e-06
-1.60886e-06
1.44366e-06
-1.77016e-06
1.41318e-06
-1.9246e-06
1.36286e-06
-2.07036e-06
1.29403e-06
-2.20578e-06
1.20812e-06
-2.32938e-06
1.10664e-06
-2.43985e-06
9.91175e-07
-2.53603e-06
8.63364e-07
-2.61693e-06
7.2488e-07
-2.68169e-06
5.77433e-07
-2.72965e-06
4.22771e-07
-2.76027e-06
2.62674e-07
9.89619e-08
-1.75758e-08
1.27208e-07
-6.67559e-08
3.71688e-07
-1.43951e-07
6.01531e-07
-2.45573e-07
8.13065e-07
-3.68075e-07
1.00347e-06
-5.07978e-07
1.17055e-06
-6.619e-07
1.31271e-06
-8.26577e-07
1.42896e-06
-9.98887e-07
1.51878e-06
-1.17587e-06
1.58214e-06
-1.35472e-06
1.61939e-06
-1.53284e-06
1.63123e-06
-1.70779e-06
1.61861e-06
-1.87736e-06
1.58274e-06
-2.03948e-06
1.52499e-06
-2.19231e-06
1.44686e-06
-2.33418e-06
1.34998e-06
-2.46359e-06
1.23605e-06
-2.57922e-06
1.10681e-06
-2.67993e-06
9.64069e-07
-2.76471e-06
8.09661e-07
-2.83273e-06
6.45453e-07
-2.8833e-06
4.73343e-07
-2.91589e-06
2.95262e-07
1.13177e-07
-1.87926e-08
1.46001e-07
-7.1333e-08
4.24228e-07
-1.53716e-07
6.83914e-07
-2.6203e-07
9.21379e-07
-3.92405e-07
1.13384e-06
-5.41053e-07
1.31919e-06
-7.04305e-07
1.47596e-06
-8.78639e-07
1.60329e-06
-1.0607e-06
1.70084e-06
-1.24734e-06
1.76878e-06
-1.4356e-06
1.80765e-06
-1.62274e-06
1.81837e-06
-1.80624e-06
1.80211e-06
-1.98381e-06
1.7603e-06
-2.15334e-06
1.69452e-06
-2.31296e-06
1.60649e-06
-2.46099e-06
1.49802e-06
-2.59595e-06
1.371e-06
-2.71651e-06
1.22737e-06
-2.82154e-06
1.0691e-06
-2.91006e-06
8.98178e-07
-2.98123e-06
7.16628e-07
-3.03438e-06
5.26495e-07
-3.06897e-06
3.29851e-07
1.28807e-07
-2.0038e-08
1.66039e-07
-7.60049e-08
4.80195e-07
-1.63663e-07
7.71572e-07
-2.78758e-07
1.03647e-06
-4.17082e-07
1.27217e-06
-5.74526e-07
1.47664e-06
-7.4712e-07
1.64856e-06
-9.31075e-07
1.78724e-06
-1.12281e-06
1.89258e-06
-1.31896e-06
1.96493e-06
-1.51642e-06
2.00511e-06
-1.71233e-06
2.01428e-06
-1.90408e-06
1.99386e-06
-2.08931e-06
1.94553e-06
-2.2659e-06
1.8711e-06
-2.43194e-06
1.77253e-06
-2.58578e-06
1.65185e-06
-2.72593e-06
1.51115e-06
-2.85111e-06
1.35255e-06
-2.96019e-06
1.17819e-06
-3.05223e-06
9.90218e-07
-3.12642e-06
7.90814e-07
-3.18208e-06
5.82157e-07
-3.21868e-06
3.66454e-07
1.45945e-07
-2.13198e-08
1.87359e-07
-8.0799e-08
5.39674e-07
-1.73843e-07
8.64616e-07
-2.95833e-07
1.15846e-06
-4.42203e-07
1.41854e-06
-6.08503e-07
1.64294e-06
-7.9045e-07
1.83051e-06
-9.83972e-07
1.98077e-06
-1.18525e-06
2.09385e-06
-1.39072e-06
2.1704e-06
-1.59712e-06
2.21151e-06
-1.80147e-06
2.21863e-06
-2.00108e-06
2.19348e-06
-2.19355e-06
2.13799e-06
-2.37673e-06
2.05428e-06
-2.54873e-06
1.94454e-06
-2.7079e-06
1.81103e-06
-2.8528e-06
1.65605e-06
-2.98218e-06
1.48193e-06
-3.09497e-06
1.29097e-06
-3.19024e-06
1.08549e-06
-3.26723e-06
8.67801e-07
-3.32528e-06
6.4021e-07
-3.36388e-06
4.05048e-07
1.64671e-07
-2.26462e-08
2.10005e-07
-8.57422e-08
6.02771e-07
-1.84308e-07
9.63182e-07
-3.13331e-07
1.28749e-06
-4.67861e-07
1.57307e-06
-6.43082e-07
1.81816e-06
-8.3438e-07
2.0218e-06
-1.03739e-06
2.18378e-06
-1.24804e-06
2.3045e-06
-1.46257e-06
2.38493e-06
-1.67756e-06
2.4265e-06
-1.88992e-06
2.43099e-06
-2.0969e-06
2.40045e-06
-2.29605e-06
2.33714e-06
-2.48523e-06
2.24346e-06
-2.66258e-06
2.12189e-06
-2.82649e-06
1.97494e-06
-2.97557e-06
1.80513e-06
-3.10863e-06
1.61499e-06
-3.22466e-06
1.407e-06
-3.32279e-06
1.18362e-06
-3.40229e-06
9.47303e-07
-3.46255e-06
7.00473e-07
-3.50307e-06
4.45567e-07
1.85038e-07
-2.40252e-08
2.3403e-07
-9.08629e-08
6.69608e-07
-1.95111e-07
1.06743e-06
-3.31328e-07
1.4237e-06
-4.94146e-07
1.73588e-06
-6.78356e-07
2.00237e-06
-8.78986e-07
2.22243e-06
-1.09136e-06
2.39615e-06
-1.31115e-06
2.52429e-06
-1.5344e-06
2.60818e-06
-1.75752e-06
2.64963e-06
-1.97734e-06
2.65081e-06
-2.19105e-06
2.61416e-06
-2.39619e-06
2.54228e-06
-2.59064e-06
2.43792e-06
-2.77259e-06
2.30384e-06
-2.94049e-06
2.14284e-06
-3.09303e-06
1.95767e-06
-3.2291e-06
1.75106e-06
-3.34778e-06
1.52567e-06
-3.44827e-06
1.28411e-06
-3.5299e-06
1.02894e-06
-3.59212e-06
7.6269e-07
-3.63444e-06
4.87891e-07
2.07071e-07
-2.54662e-08
2.59496e-07
-9.6192e-08
7.40334e-07
-2.0631e-07
1.17755e-06
-3.49907e-07
1.5673e-06
-5.21154e-07
1.90713e-06
-7.14414e-07
2.19563e-06
-9.24331e-07
2.43235e-06
-1.1459e-06
2.61772e-06
-1.37452e-06
2.75291e-06
-1.60603e-06
2.83969e-06
-1.83672e-06
2.88031e-06
-2.0633e-06
2.87739e-06
-2.28294e-06
2.8338e-06
-2.49319e-06
2.75254e-06
-2.69199e-06
2.63672e-06
-2.8776e-06
2.48945e-06
-3.04856e-06
2.3138e-06
-3.20367e-06
2.11278e-06
-3.34193e-06
1.88932e-06
-3.46251e-06
1.64626e-06
-3.56473e-06
1.38633e-06
-3.648e-06
1.11221e-06
-3.71182e-06
8.26512e-07
-3.75576e-06
5.31831e-07
2.3075e-07
-2.69798e-08
2.86476e-07
-1.01765e-07
8.1512e-07
-2.17972e-07
1.29375e-06
-3.69159e-07
1.71849e-06
-5.48988e-07
2.08696e-06
-7.51352e-07
2.39799e-06
-9.70475e-07
2.65147e-06
-1.201e-06
2.84825e-06
-1.43805e-06
2.98996e-06
-1.67725e-06
3.07889e-06
-1.91476e-06
3.11782e-06
-2.14723e-06
3.10986e-06
-2.37181e-06
3.05838e-06
-2.5861e-06
2.96684e-06
-2.78812e-06
2.83874e-06
-2.97624e-06
2.67756e-06
-3.14912e-06
2.48668e-06
-3.3057e-06
2.26936e-06
-3.44513e-06
2.02875e-06
-3.56671e-06
1.76784e-06
-3.66988e-06
1.4895e-06
-3.75416e-06
1.19648e-06
-3.81913e-06
8.91482e-07
-3.86442e-06
5.77117e-07
2.56e-07
-2.85791e-08
3.15055e-07
-1.07626e-07
8.94167e-07
-2.30175e-07
1.4163e-06
-3.89194e-07
1.87751e-06
-5.77773e-07
2.27554e-06
-7.89279e-07
2.6095e-06
-1.01748e-06
2.87967e-06
-1.25664e-06
3.08741e-06
-1.50159e-06
3.23491e-06
-1.74775e-06
3.32506e-06
-1.99116e-06
3.36123e-06
-2.22843e-06
3.34713e-06
-2.45674e-06
3.28668e-06
-2.67376e-06
3.18386e-06
-2.87762e-06
3.0426e-06
-3.06684e-06
2.86678e-06
-3.24027e-06
2.6601e-06
-3.397e-06
2.4261e-06
-3.53637e-06
2.16812e-06
-3.65785e-06
1.88931e-06
-3.76102e-06
1.59266e-06
-3.84553e-06
1.28099e-06
-3.91107e-06
9.57022e-07
-3.95733e-06
6.23385e-07
2.82686e-07
-3.02802e-08
3.45335e-07
-1.13829e-07
9.77716e-07
-2.43019e-07
1.54549e-06
-4.10145e-07
2.04463e-06
-6.07653e-07
2.47305e-06
-8.28321e-07
2.83017e-06
-1.06541e-06
3.11677e-06
-1.31278e-06
3.33478e-06
-1.56496e-06
3.48709e-06
-1.81717e-06
3.57727e-06
-2.06534e-06
3.6094e-06
-2.30609e-06
3.58788e-06
-2.53664e-06
3.51723e-06
-2.75478e-06
3.402e-06
-2.95883e-06
3.24665e-06
-3.14748e-06
3.05543e-06
-3.3198e-06
2.83242e-06
-3.47511e-06
2.58142e-06
-3.61295e-06
2.30596e-06
-3.733e-06
2.00936e-06
-3.83502e-06
1.69468e-06
-3.91881e-06
1.36479e-06
-3.9842e-06
1.02241e-06
-4.03098e-06
6.7016e-07
3.1059e-07
-3.21039e-08
3.77439e-07
-1.2044e-07
1.06605e-06
-2.56625e-07
1.68168e-06
-4.3218e-07
2.22019e-06
-6.38812e-07
2.67968e-06
-8.68635e-07
3.05999e-06
-1.11435e-06
3.36248e-06
-1.36938e-06
3.58981e-06
-1.62793e-06
3.74564e-06
-1.88505e-06
3.83438e-06
-2.13659e-06
3.86094e-06
-2.37918e-06
3.83047e-06
-2.61017e-06
3.74822e-06
-2.82753e-06
3.61937e-06
-3.02978e-06
3.44889e-06
-3.21587e-06
3.24153e-06
-3.38514e-06
3.00168e-06
-3.53716e-06
2.73344e-06
-3.67174e-06
2.44054e-06
-3.7888e-06
2.12641e-06
-3.8883e-06
1.79418e-06
-3.97026e-06
1.44674e-06
-4.03462e-06
1.08678e-06
-4.08131e-06
7.16845e-07
3.39407e-07
-3.40767e-08
4.11516e-07
-1.27548e-07
1.15952e-06
-2.71151e-07
1.82528e-06
-4.55508e-07
2.40454e-06
-6.71475e-07
2.89565e-06
-9.10411e-07
3.29893e-06
-1.16439e-06
3.61646e-06
-1.42636e-06
3.85178e-06
-1.69022e-06
4.00949e-06
-1.95082e-06
4.09499e-06
-2.20401e-06
4.11412e-06
-2.44649e-06
4.07295e-06
-2.67576e-06
3.9775e-06
-2.89006e-06
3.83366e-06
-3.08817e-06
3.647e-06
-3.26936e-06
3.42272e-06
-3.43329e-06
3.16561e-06
-3.57986e-06
2.88001e-06
-3.70916e-06
2.56985e-06
-3.82141e-06
2.23865e-06
-3.91682e-06
1.88959e-06
-3.9956e-06
1.52553e-06
-4.05791e-06
1.14909e-06
-4.10377e-06
7.62707e-07
3.6873e-07
-3.62331e-08
4.47749e-07
-1.35263e-07
1.25855e-06
-2.86795e-07
1.97681e-06
-4.80395e-07
2.59815e-06
-7.05927e-07
3.12118e-06
-9.53884e-07
3.54688e-06
-1.21564e-06
3.87822e-06
-1.48364e-06
4.11978e-06
-1.75145e-06
4.2773e-06
-2.01381e-06
4.35735e-06
-2.26655e-06
4.36687e-06
-2.50654e-06
4.31294e-06
-2.73154e-06
4.2025e-06
-2.94007e-06
4.04219e-06
-3.13129e-06
3.83822e-06
-3.30486e-06
3.59629e-06
-3.46081e-06
3.32156e-06
-3.59941e-06
3.01862e-06
-3.72113e-06
2.69157e-06
-3.82647e-06
2.344e-06
-3.91596e-06
1.97908e-06
-3.99005e-06
1.59962e-06
-4.04908e-06
1.20812e-06
-4.09325e-06
8.06873e-07
3.98041e-07
-3.86181e-08
4.86367e-07
-1.43731e-07
1.36367e-06
-3.03812e-07
2.13689e-06
-5.07176e-07
2.80151e-06
-7.42518e-07
3.35652e-06
-9.99335e-07
3.8037e-06
-1.26822e-06
4.14711e-06
-1.54107e-06
4.39263e-06
-1.81116e-06
4.54739e-06
-2.07312e-06
4.61931e-06
-2.32289e-06
4.61664e-06
-2.55756e-06
4.5476e-06
-2.77523e-06
4.42016e-06
-2.97483e-06
4.24179e-06
-3.15597e-06
4.01937e-06
-3.31877e-06
3.75909e-06
-3.46371e-06
3.4665e-06
-3.59151e-06
3.14642e-06
-3.70301e-06
2.80307e-06
-3.79909e-06
2.44008e-06
-3.88059e-06
2.06058e-06
-3.94825e-06
1.66727e-06
-4.00261e-06
1.26248e-06
-4.04406e-06
8.48319e-07
4.26702e-07
-4.12903e-08
5.27657e-07
-1.53137e-07
1.47551e-06
-3.22529e-07
2.30629e-06
-5.36272e-07
3.01525e-06
-7.81682e-07
3.60193e-06
-1.0471e-06
4.06911e-06
-1.32225e-06
4.42226e-06
-1.59845e-06
4.66883e-06
-1.86871e-06
4.81765e-06
-2.12765e-06
4.87825e-06
-2.37138e-06
4.86036e-06
-2.59734e-06
4.77356e-06
-2.80408e-06
4.62691e-06
-2.99107e-06
4.42878e-06
-3.15846e-06
4.18675e-06
-3.3069e-06
3.90754e-06
-3.43741e-06
3.597e-06
-3.55119e-06
3.2602e-06
-3.64954e-06
2.90142e-06
-3.73374e-06
2.52428e-06
-3.80497e-06
2.13181e-06
-3.86424e-06
1.72654e-06
-3.91238e-06
1.31062e-06
-3.94994e-06
8.85879e-07
4.53956e-07
-4.43267e-08
5.71984e-07
-1.63723e-07
1.59491e-06
-3.43362e-07
2.48593e-06
-5.68212e-07
3.2401e-06
-8.23942e-07
3.85766e-06
-1.09755e-06
4.34272e-06
-1.3778e-06
4.70251e-06
-1.65544e-06
4.94647e-06
-1.92324e-06
5.08546e-06
-2.17592e-06
5.13092e-06
-2.40991e-06
5.09435e-06
-2.62314e-06
4.9868e-06
-2.81477e-06
4.81854e-06
-2.98489e-06
4.5989e-06
-3.13432e-06
4.33618e-06
-3.26436e-06
4.03757e-06
-3.37661e-06
3.70926e-06
-3.47284e-06
3.35643e-06
-3.55482e-06
2.9834e-06
-3.62426e-06
2.59372e-06
-3.6827e-06
2.19026e-06
-3.73149e-06
1.77533e-06
-3.77169e-06
1.35082e-06
-3.80406e-06
9.18251e-07
4.78927e-07
-4.78291e-08
6.19813e-07
-1.75805e-07
1.72288e-06
-3.6684e-07
2.67696e-06
-6.03652e-07
3.47691e-06
-8.69922e-07
4.12393e-06
-1.1511e-06
4.6239e-06
-1.43488e-06
4.98629e-06
-1.71147e-06
5.22306e-06
-1.97353e-06
5.34751e-06
-2.21598e-06
5.37338e-06
-2.43579e-06
5.31416e-06
-2.63155e-06
5.18256e-06
-2.80318e-06
4.99016e-06
-2.95156e-06
4.74729e-06
-3.0783e-06
4.46292e-06
-3.18543e-06
4.1447e-06
-3.27523e-06
3.79905e-06
-3.35004e-06
3.43124e-06
-3.41216e-06
3.04553e-06
-3.46376e-06
2.64532e-06
-3.50676e-06
2.23325e-06
-3.54281e-06
1.81138e-06
-3.57323e-06
1.38125e-06
-3.59901e-06
9.44024e-07
5.00636e-07
-5.19322e-08
6.71745e-07
-1.89791e-07
1.86074e-06
-3.93642e-07
2.88081e-06
-6.43397e-07
3.72667e-06
-9.20345e-07
4.40088e-06
-1.20813e-06
4.91169e-06
-1.49335e-06
5.27151e-06
-1.76568e-06
5.49539e-06
-2.01784e-06
5.59966e-06
-2.24522e-06
5.60077e-06
-2.44552e-06
5.51446e-06
-2.61822e-06
5.35526e-06
-2.76421e-06
5.13615e-06
-2.88535e-06
4.86843e-06
-2.98412e-06
4.5617e-06
-3.06341e-06
4.22399e-06
-3.1262e-06
3.86184e-06
-3.17548e-06
3.48052e-06
-3.2141e-06
3.08414e-06
-3.24464e-06
2.67586e-06
-3.26942e-06
2.25803e-06
-3.29039e-06
1.83235e-06
-3.30913e-06
1.39999e-06
-3.32682e-06
9.61714e-07
5.18023e-07
-5.68169e-08
7.28562e-07
-2.0622e-07
2.01015e-06
-4.24626e-07
3.09922e-06
-6.8843e-07
3.99047e-06
-9.76012e-07
4.68846e-06
-1.26897e-06
5.20464e-06
-1.55272e-06
5.55526e-06
-1.81662e-06
5.75929e-06
-2.05368e-06
5.83672e-06
-2.26005e-06
5.80714e-06
-2.43447e-06
5.68887e-06
-2.5776e-06
5.4984e-06
-2.69153e-06
5.25008e-06
-2.77925e-06
4.95615e-06
-2.84429e-06
4.62674e-06
-2.89042e-06
4.27011e-06
-2.92141e-06
3.89284e-06
-2.9409e-06
3.5e-06
-2.95224e-06
3.09548e-06
-2.95848e-06
2.68209e-06
-2.96225e-06
2.26181e-06
-2.96581e-06
1.83591e-06
-2.97096e-06
1.40514e-06
-2.97906e-06
9.69817e-07
5.29983e-07
-6.27282e-08
7.9129e-07
-2.258e-07
2.17322e-06
-4.60888e-07
3.33431e-06
-7.39922e-07
4.26951e-06
-1.03776e-06
4.9863e-06
-1.3337e-06
5.50058e-06
-1.61204e-06
5.8336e-06
-1.86206e-06
6.00931e-06
-2.07745e-06
6.05211e-06
-2.25556e-06
5.98525e-06
-2.39654e-06
5.82985e-06
-2.50258e-06
5.60444e-06
-2.5772e-06
5.32471e-06
-2.62473e-06
5.00367e-06
-2.64983e-06
4.65184e-06
-2.65723e-06
4.27752e-06
-2.65151e-06
3.88711e-06
-2.6369e-06
3.4854e-06
-2.61727e-06
3.07586e-06
-2.59604e-06
2.66086e-06
-2.57615e-06
2.24192e-06
-2.56008e-06
1.81984e-06
-2.54981e-06
1.39487e-06
-2.54688e-06
9.66883e-07
5.35416e-07
-7.00039e-08
8.61294e-07
-2.49475e-07
2.35269e-06
-5.03814e-07
3.58865e-06
-7.9924e-07
4.56493e-06
-1.10637e-06
5.29343e-06
-1.40196e-06
5.79617e-06
-1.66944e-06
6.10108e-06
-1.89845e-06
6.23832e-06
-2.08393e-06
6.23759e-06
-2.22495e-06
6.12627e-06
-2.32361e-06
5.92851e-06
-2.38396e-06
5.66479e-06
-2.41126e-06
5.35201e-06
-2.4113e-06
5.00371e-06
-2.38999e-06
4.63053e-06
-2.35303e-06
4.24056e-06
-2.30573e-06
3.83981e-06
-2.25292e-06
3.43258e-06
-2.19887e-06
3.0218e-06
-2.14728e-06
2.60928e-06
-2.10134e-06
2.19598e-06
-2.06366e-06
1.78216e-06
-2.03638e-06
1.36759e-06
-2.0211e-06
9.5161e-07
5.33298e-07
-7.91185e-08
9.40413e-07
-2.78516e-07
2.55209e-06
-5.55154e-07
3.86528e-06
-8.67906e-07
4.87768e-06
-1.18232e-06
5.60784e-06
-1.47258e-06
6.08644e-06
-1.72167e-06
6.35017e-06
-1.92033e-06
6.43699e-06
-2.06556e-06
6.38282e-06
-2.15888e-06
6.2196e-06
-2.20489e-06
5.97451e-06
-2.20993e-06
5.66983e-06
-2.18124e-06
5.32331e-06
-2.1262e-06
4.94868e-06
-2.05198e-06
4.55631e-06
-1.96519e-06
4.15377e-06
-1.87181e-06
3.74644e-06
-1.77712e-06
3.33789e-06
-1.68568e-06
2.93035e-06
-1.60136e-06
2.52497e-06
-1.52745e-06
2.12207e-06
-1.46663e-06
1.72134e-06
-1.42106e-06
1.32202e-06
-1.39241e-06
9.22955e-07
5.22758e-07
-9.0755e-08
1.03117e-06
-3.14648e-07
2.77598e-06
-6.17091e-07
4.16773e-06
-9.47475e-07
5.20807e-06
-1.26546e-06
5.92582e-06
-1.54289e-06
6.36387e-06
-1.76318e-06
6.57046e-06
-1.91933e-06
6.59314e-06
-2.01146e-06
6.47494e-06
-2.04446e-06
6.2526e-06
-2.02605e-06
5.9561e-06
-1.96529e-06
5.60907e-06
-1.87155e-06
5.22957e-06
-1.75387e-06
4.831e-06
-1.62058e-06
4.42301e-06
-1.47908e-06
4.01227e-06
-1.33583e-06
3.60319e-06
-1.19638e-06
3.19844e-06
-1.06538e-06
2.79936e-06
-9.46739e-07
2.40633e-06
-8.43667e-07
2.01899e-06
-7.58785e-07
1.63646e-06
-6.94187e-07
1.25742e-06
-6.515e-07
8.80268e-07
5.03181e-07
-1.05926e-07
1.13709e-06
-3.60241e-07
3.03029e-06
-6.92278e-07
4.49976e-06
-1.03924e-06
5.55503e-06
-1.35425e-06
6.24083e-06
-1.60766e-06
6.61727e-06
-1.78487e-06
6.74767e-06
-1.88277e-06
6.69105e-06
-1.90607e-06
6.49824e-06
-1.86405e-06
6.21058e-06
-1.76822e-06
5.86027e-06
-1.63064e-06
5.4715e-06
-1.46292e-06
5.06185e-06
-1.2756e-06
4.64369e-06
-1.07796e-06
4.22537e-06
-8.77951e-07
3.81226e-06
-6.82233e-07
3.40747e-06
-4.96339e-07
3.01254e-06
-3.24806e-07
2.62782e-06
-1.71324e-07
2.25285e-06
-3.88792e-08
1.88655e-06
7.01311e-08
1.52745e-06
1.538e-07
1.17375e-06
2.10634e-07
8.23433e-07
4.74309e-07
-1.2618e-07
1.26327e-06
-4.18576e-07
3.32269e-06
-7.8378e-07
4.86497e-06
-1.14356e-06
5.91481e-06
-1.4445e-06
6.54178e-06
-1.65734e-06
6.83012e-06
-1.77201e-06
6.86233e-06
-1.79164e-06
6.71068e-06
-1.72726e-06
6.43386e-06
-1.59367e-06
6.07699e-06
-1.40669e-06
5.67329e-06
-1.1815e-06
5.2463e-06
-9.31717e-07
4.81207e-06
-6.69103e-07
4.38107e-06
-4.03485e-07
3.95976e-06
-1.42917e-07
3.55169e-06
1.06104e-07
3.15845e-06
3.38395e-07
2.78025e-06
5.4985e-07
2.41637e-06
7.37232e-07
2.06546e-06
8.9799e-07
1.72579e-06
1.03011e-06
1.39532e-06
1.13201e-06
1.07185e-06
1.20243e-06
7.53013e-07
4.36355e-07
-1.53969e-07
1.41724e-06
-4.94176e-07
3.6629e-06
-8.94689e-07
5.26548e-06
-1.25844e-06
6.27856e-06
-1.52699e-06
6.81032e-06
-1.67515e-06
6.97828e-06
-1.70126e-06
6.88844e-06
-1.61777e-06
6.6272e-06
-1.444e-06
6.26009e-06
-1.20119e-06
5.83418e-06
-9.09663e-07
5.38177e-06
-5.87402e-07
4.92404e-06
-2.49549e-07
4.47422e-06
9.15871e-08
4.03994e-06
4.26247e-07
3.6251e-06
7.46837e-07
3.2311e-06
1.04753e-06
2.85776e-06
1.3239e-06
2.50388e-06
1.57261e-06
2.16766e-06
1.79115e-06
1.84693e-06
1.9776e-06
1.53933e-06
2.13052e-06
1.24241e-06
2.24876e-06
9.53613e-07
2.33139e-06
6.70381e-07
3.90097e-07
-1.93274e-07
1.61052e-06
-5.93109e-07
4.06273e-06
-1.02696e-06
5.69933e-06
-1.37665e-06
6.62825e-06
-1.58333e-06
7.017e-06
-1.63241e-06
7.02736e-06
-1.5362e-06
6.79223e-06
-1.32011e-06
6.4111e-06
-1.01345e-06
5.95343e-06
-6.44282e-07
5.46501e-06
-2.36938e-07
4.97442e-06
1.88673e-07
4.49843e-06
6.16938e-07
4.04595e-06
1.03598e-06
3.6209e-06
1.43698e-06
3.2241e-06
1.81353e-06
2.85455e-06
2.16105e-06
2.51024e-06
2.47632e-06
2.1886e-06
2.75713e-06
1.88685e-06
3.00193e-06
1.60213e-06
3.20967e-06
1.3316e-06
3.37957e-06
1.0725e-06
3.51105e-06
8.2213e-07
3.60361e-06
5.77825e-07
3.36956e-07
-2.50655e-07
1.86117e-06
-7.22826e-07
4.5349e-06
-1.17828e-06
6.15479e-06
-1.4798e-06
6.92977e-06
-1.57864e-06
7.11585e-06
-1.48128e-06
6.92999e-06
-1.22109e-06
6.53204e-06
-8.3986e-07
6.02987e-06
-3.77667e-07
5.49124e-06
1.3151e-07
4.95583e-06
6.60893e-07
4.44504e-06
1.19041e-06
3.96891e-06
1.7056e-06
3.53077e-06
2.19636e-06
3.13013e-06
2.6559e-06
2.76456e-06
3.07981e-06
2.43065e-06
3.46536e-06
2.12469e-06
3.81098e-06
1.84298e-06
4.11585e-06
1.58198e-06
4.37964e-06
1.33834e-06
4.60225e-06
1.10898e-06
4.78373e-06
8.91023e-07
4.92411e-06
6.81752e-07
5.02335e-06
4.78588e-07
2.79029e-07
-3.3675e-07
2.19792e-06
-8.90163e-07
5.08832e-06
-1.33436e-06
6.59898e-06
-1.52675e-06
7.12215e-06
-1.4491e-06
7.0382e-06
-1.14377e-06
6.62466e-06
-6.72506e-07
6.06078e-06
-9.50722e-08
5.45244e-06
5.39357e-07
4.85681e-06
1.19383e-06
4.30136e-06
1.84226e-06
3.79661e-06
2.46715e-06
3.34402e-06
3.05735e-06
2.94057e-06
3.60618e-06
2.5813e-06
4.11001e-06
2.26072e-06
4.56722e-06
1.97344e-06
4.97744e-06
1.71447e-06
5.34107e-06
1.47936e-06
5.6589e-06
1.26415e-06
5.93188e-06
1.06536e-06
6.16097e-06
8.79889e-07
6.34703e-06
7.04968e-07
6.49071e-06
5.38068e-07
6.59246e-06
3.76842e-07
2.19057e-07
-4.67157e-07
2.66508e-06
-1.09302e-06
5.71418e-06
-1.45056e-06
6.95652e-06
-1.43126e-06
7.10286e-06
-1.0815e-06
6.68844e-06
-4.9634e-07
6.0395e-06
2.30372e-07
5.33406e-06
1.02431e-06
4.6585e-06
1.83308e-06
4.04803e-06
2.62266e-06
3.51178e-06
3.37247e-06
3.0468e-06
4.07115e-06
2.64534e-06
4.71332e-06
2.29839e-06
5.29731e-06
1.99731e-06
5.82363e-06
1.7344e-06
6.29399e-06
1.50308e-06
6.71066e-06
1.2978e-06
7.0761e-06
1.11392e-06
7.39271e-06
9.47532e-07
7.66271e-06
7.9536e-07
7.88801e-06
6.54588e-07
8.07021e-06
5.22772e-07
8.21053e-06
3.97745e-07
8.30983e-06
2.77538e-07
1.60308e-07
-6.56502e-07
3.32158e-06
-1.2924e-06
6.35008e-06
-1.41006e-06
7.07418e-06
-1.02127e-06
6.71407e-06
-2.8252e-07
5.94968e-06
6.48743e-07
5.10824e-06
1.6543e-06
4.32851e-06
2.65792e-06
3.65488e-06
3.61578e-06
3.09017e-06
4.5056e-06
2.62196e-06
5.31828e-06
2.23412e-06
6.05227e-06
1.91135e-06
6.71001e-06
1.64065e-06
7.29586e-06
1.41147e-06
7.81486e-06
1.2154e-06
8.27209e-06
1.04585e-06
8.67233e-06
8.97561e-07
9.01987e-06
7.66374e-07
9.31848e-06
6.48931e-07
9.57134e-06
5.42499e-07
9.78112e-06
4.44806e-07
9.94996e-06
3.5393e-07
1.00795e-05
2.68204e-07
1.01709e-05
1.86139e-07
1.06366e-07
-8.8803e-07
4.20961e-06
-1.33348e-06
6.79554e-06
-9.35243e-07
6.67594e-06
2.92388e-08
5.74959e-06
1.26092e-06
4.71801e-06
2.55959e-06
3.80956e-06
3.81287e-06
3.07523e-06
4.96783e-06
2.49992e-06
6.0061e-06
2.05191e-06
6.92702e-06
1.70104e-06
7.73804e-06
1.4231e-06
8.44954e-06
1.19985e-06
9.07234e-06
1.01785e-06
9.61654e-06
8.6726e-07
1.00911e-05
7.40837e-07
1.05038e-05
6.33198e-07
1.0861e-05
5.40288e-07
1.11684e-05
4.58998e-07
1.14304e-05
3.86912e-07
1.16508e-05
3.22111e-07
1.18326e-05
2.63039e-07
1.19781e-05
2.08408e-07
1.20892e-05
1.57119e-07
1.21671e-05
1.08208e-07
6.07976e-08
-1.01533e-06
5.22494e-06
-7.47875e-07
6.52808e-06
5.83975e-07
5.34409e-06
2.29991e-06
4.03366e-06
4.01952e-06
2.99839e-06
5.58468e-06
2.2444e-06
6.94881e-06
1.7111e-06
8.11554e-06
1.33319e-06
9.10702e-06
1.06042e-06
9.94934e-06
8.58716e-07
1.06667e-05
7.05752e-07
1.12796e-05
5.86914e-07
1.1805e-05
4.92504e-07
1.22563e-05
4.15959e-07
1.26444e-05
3.5274e-07
1.29779e-05
2.99629e-07
1.32639e-05
2.54291e-07
1.3508e-05
2.14992e-07
1.37144e-05
1.80419e-07
1.3887e-05
1.49549e-07
1.40285e-05
1.21571e-07
1.41411e-05
9.58217e-08
1.42264e-05
7.1744e-08
1.42858e-05
4.88549e-08
2.6719e-08
-2.34978e-07
5.45992e-06
1.80398e-06
4.48912e-06
4.40145e-06
2.74661e-06
6.72175e-06
1.71336e-06
8.60683e-06
1.11332e-06
1.00972e-05
7.53983e-07
1.12737e-05