/*--------------------------------*- C++ -*----------------------------------*\
| =========                 |                                                 |
| \\      /  F ield         | OpenFOAM: The Open Source CFD Toolbox           |
|  \\    /   O peration     | Version:  v2012                                 |
|   \\  /    A nd           | Website:  www.openfoam.com                      |
|    \\/     M anipulation  |                                                 |
\*---------------------------------------------------------------------------*/
FoamFile
{
    version     2.0;
    format      ascii;
    class       volVectorField;
    location    "0.45";
    object      U;
}
// * * * * * * * * * * * * * * * * * * * * * * * * * * * * * * * * * * * * * //

dimensions      [0 1 -1 0 0 0 0];


internalField   nonuniform List<vector> 
1250
(
(3.26608e-05 -3.283e-05 0)
(9.87618e-05 -4.07332e-05 0)
(0.000137325 -2.09868e-05 0)
(0.000106253 7.85397e-06 0)
(-8.73152e-06 3.77386e-05 0)
(-0.000206073 6.53613e-05 0)
(-0.000478429 8.94101e-05 0)
(-0.000815976 0.000109472 0)
(-0.00120777 0.000125522 0)
(-0.00164254 0.000137701 0)
(-0.00210912 0.000146212 0)
(-0.00259671 0.000151287 0)
(-0.00309503 0.000153168 0)
(-0.00359435 0.000152095 0)
(-0.00408562 0.000148308 0)
(-0.00456043 0.000142041 0)
(-0.00501108 0.000133521 0)
(-0.00543057 0.000122974 0)
(-0.00581257 0.000110619 0)
(-0.00615148 9.66742e-05 0)
(-0.00644242 8.13561e-05 0)
(-0.00668122 6.4882e-05 0)
(-0.00686444 4.74718e-05 0)
(-0.00698938 2.93498e-05 0)
(-0.00705411 1.07459e-05 0)
(4.1075e-05 -9.92599e-05 0)
(9.39072e-05 -9.30496e-05 0)
(4.5472e-05 1.44703e-05 0)
(-0.000168791 0.00016186 0)
(-0.000575853 0.000318391 0)
(-0.00117706 0.000468049 0)
(-0.00196004 0.000602506 0)
(-0.00290455 0.0007177 0)
(-0.00398589 0.000811889 0)
(-0.00517718 0.000884612 0)
(-0.0064507 0.000936143 0)
(-0.00777894 0.000967194 0)
(-0.00913507 0.000978742 0)
(-0.0104934 0.00097193 0)
(-0.0118298 0.000948 0)
(-0.0131216 0.000908255 0)
(-0.0143477 0.000854039 0)
(-0.0154891 0.000786714 0)
(-0.0165285 0.000707662 0)
(-0.0174506 0.000618277 0)
(-0.0182418 0.000519973 0)
(-0.0188909 0.00041418 0)
(-0.0193883 0.000302356 0)
(-0.0197267 0.000185992 0)
(-0.019901 6.66149e-05 0)
(2.24912e-05 -0.00013934 0)
(-1.00584e-05 -4.58162e-05 0)
(-0.00023415 0.000239619 0)
(-0.000706119 0.000609364 0)
(-0.0014518 0.00100298 0)
(-0.00247272 0.00138412 0)
(-0.00375308 0.00173124 0)
(-0.00526578 0.00203222 0)
(-0.00697673 0.00228072 0)
(-0.00884781 0.002474 0)
(-0.010839 0.00261157 0)
(-0.0129097 0.00269443 0)
(-0.01502 0.00272457 0)
(-0.0171313 0.0027046 0)
(-0.0192069 0.00263757 0)
(-0.021212 0.00252682 0)
(-0.0231147 0.00237589 0)
(-0.0248853 0.00218846 0)
(-0.0264972 0.00196831 0)
(-0.0279267 0.00171932 0)
(-0.029153 0.0014454 0)
(-0.0301583 0.00115061 0)
(-0.0309282 0.000839025 0)
(-0.0314513 0.000514869 0)
(-0.0317197 0.000182448 0)
(-4.90884e-06 -0.000112334 0)
(-0.000153918 0.000164523 0)
(-0.000600259 0.00071043 0)
(-0.00137371 0.0013803 0)
(-0.00248895 0.002086 0)
(-0.00394337 0.00277014 0)
(-0.00571631 0.0033961 0)
(-0.00777442 0.00394159 0)
(-0.0100761 0.00439386 0)
(-0.0125743 0.00474652 0)
(-0.0152196 0.00499746 0)
(-0.017961 0.00514751 0)
(-0.0207482 0.00519956 0)
(-0.0235319 0.00515787 0)
(-0.026265 0.00502772 0)
(-0.028903 0.00481506 0)
(-0.0314044 0.00452636 0)
(-0.0337309 0.0041684 0)
(-0.0358479 0.00374829 0)
(-0.0377245 0.00327332 0)
(-0.0393336 0.00275097 0)
(-0.0406522 0.00218892 0)
(-0.0416614 0.00159502 0)
(-0.0423464 0.000977312 0)
(-0.0426971 0.000344057 0)
(-3.37009e-05 -3.34657e-06 0)
(-0.000310131 0.000567949 0)
(-0.00100057 0.00145864 0)
(-0.00209861 0.00249822 0)
(-0.00360122 0.00357636 0)
(-0.00549772 0.0046171 0)
(-0.00776045 0.00556936 0)
(-0.0103491 0.00640029 0)
(-0.0132149 0.00708999 0)
(-0.0163035 0.00762762 0)
(-0.019557 0.00800882 0)
(-0.0229164 0.00823385 0)
(-0.0263224 0.00830632 0)
(-0.0297172 0.00823219 0)
(-0.0330451 0.00801917 0)
(-0.0362534 0.00767622 0)
(-0.0392927 0.0072132 0)
(-0.0421174 0.00664068 0)
(-0.0446862 0.00596972 0)
(-0.0469621 0.00521182 0)
(-0.0489127 0.00437883 0)
(-0.0505105 0.00348291 0)
(-0.0517328 0.00253658 0)
(-0.0525621 0.00155263 0)
(-0.0529862 0.000544215 0)
(-6.11748e-05 0.000188493 0)
(-0.000465908 0.00117313 0)
(-0.001407 0.002498 0)
(-0.0028385 0.00397758 0)
(-0.00473604 0.00548528 0)
(-0.00707792 0.00693005 0)
(-0.00982734 0.0082481 0)
(-0.0129359 0.00939677 0)
(-0.0163473 0.010349 0)
(-0.0200001 0.0110894 0)
(-0.0238291 0.0116111 0)
(-0.0277678 0.0119135 0)
(-0.0317497 0.012001 0)
(-0.0357097 0.0118812 0)
(-0.0395849 0.0115645 0)
(-0.0433157 0.0110632 0)
(-0.046846 0.0103908 0)
(-0.0501242 0.00956236 0)
(-0.0531032 0.00859335 0)
(-0.0557411 0.00750015 0)
(-0.058001 0.00629965 0)
(-0.0598515 0.00500925 0)
(-0.0612669 0.00364686 0)
(-0.0622272 0.00223084 0)
(-0.0627185 0.000780017 0)
(-8.65457e-05 0.000459915 0)
(-0.000615836 0.00197894 0)
(-0.00180553 0.00383063 0)
(-0.00357045 0.00582201 0)
(-0.00586339 0.0078155 0)
(-0.00864969 0.00970861 0)
(-0.0118817 0.0114272 0)
(-0.0155017 0.0129202 0)
(-0.0194454 0.0141541 0)
(-0.0236437 0.0151092 0)
(-0.0280246 0.0157764 0)
(-0.0325149 0.0161543 0)
(-0.0370414 0.016248 0)
(-0.0415326 0.0160671 0)
(-0.0459195 0.0156248 0)
(-0.0501366 0.0149369 0)
(-0.0541223 0.0140214 0)
(-0.0578198 0.0128977 0)
(-0.0611774 0.0115864 0)
(-0.0641488 0.0101094 0)
(-0.0666934 0.00848905 0)
(-0.0687766 0.00674868 0)
(-0.07037 0.0049122 0)
(-0.0714517 0.00300418 0)
(-0.0720062 0.00104983 0)
(-0.000109826 0.000806564 0)
(-0.000758305 0.00297988 0)
(-0.00219047 0.0054524 0)
(-0.00428389 0.00802868 0)
(-0.00696841 0.0105644 0)
(-0.0101953 0.0129489 0)
(-0.013905 0.0151004 0)
(-0.0180293 0.0169607 0)
(-0.022495 0.0184914 0)
(-0.0272254 0.0196691 0)
(-0.0321413 0.0204827 0)
(-0.037163 0.0209307 0)
(-0.0422113 0.0210191 0)
(-0.0472089 0.0207598 0)
(-0.0520813 0.0201689 0)
(-0.0567578 0.0192663 0)
(-0.0611723 0.0180744 0)
(-0.0652635 0.0166178 0)
(-0.0689757 0.0149226 0)
(-0.072259 0.0130163 0)
(-0.0750698 0.0109276 0)
(-0.0773709 0.00868606 0)
(-0.0791315 0.00632214 0)
(-0.0803281 0.00386717 0)
(-0.0809439 0.00135325 0)
(-0.000131319 0.0012241 0)
(-0.000893523 0.00416885 0)
(-0.00256069 0.0073564 0)
(-0.00497558 0.0105917 0)
(-0.00804576 0.0137267 0)
(-0.011708 0.0166458 0)
(-0.0158899 0.0192613 0)
(-0.0205121 0.0215104 0)
(-0.025492 0.0233506 0)
(-0.0307445 0.024756 0)
(-0.0361833 0.0257144 0)
(-0.0417221 0.0262247 0)
(-0.0472757 0.0262942 0)
(-0.0527614 0.0259374 0)
(-0.0581 0.0251741 0)
(-0.0632161 0.0240283 0)
(-0.0680395 0.0225274 0)
(-0.0725053 0.0207013 0)
(-0.0765543 0.0185822 0)
(-0.0801337 0.0162038 0)
(-0.0831972 0.0136011 0)
(-0.0857055 0.0108106 0)
(-0.0876259 0.00786959 0)
(-0.0889333 0.00481663 0)
(-0.0896099 0.00169115 0)
(-0.000151397 0.00170874 0)
(-0.0010225 0.00553887 0)
(-0.0029174 0.00953504 0)
(-0.00564646 0.0135041 0)
(-0.00909583 0.0172966 0)
(-0.0131878 0.0207937 0)
(-0.0178366 0.0239045 0)
(-0.0229513 0.0265629 0)
(-0.0284391 0.028724 0)
(-0.0342064 0.0303606 0)
(-0.0401591 0.0314605 0)
(-0.0462044 0.0320233 0)
(-0.0522514 0.0320588 0)
(-0.0582121 0.0315844 0)
(-0.0640026 0.0306239 0)
(-0.0695437 0.0292061 0)
(-0.0747613 0.0273638 0)
(-0.0795874 0.0251327 0)
(-0.08396 0.0225512 0)
(-0.0878238 0.0196595 0)
(-0.0911303 0.0164996 0)
(-0.0938383 0.0131149 0)
(-0.0959136 0.00955013 0)
(-0.0973299 0.00585129 0)
(-0.0980683 0.00206548 0)
(-0.000170425 0.00225742 0)
(-0.00114654 0.00708384 0)
(-0.00326298 0.0119813 0)
(-0.00629968 0.0167592 0)
(-0.0101223 0.0212678 0)
(-0.0146387 0.0253873 0)
(-0.0197497 0.0290249 0)
(-0.0253523 0.032113 0)
(-0.0313432 0.0346058 0)
(-0.0376196 0.0364762 0)
(-0.0440797 0.0377127 0)
(-0.0506239 0.0383172 0)
(-0.0571553 0.0383021 0)
(-0.063581 0.0376889 0)
(-0.0698129 0.036506 0)
(-0.0757678 0.0347872 0)
(-0.0813685 0.0325713 0)
(-0.0865442 0.0299002 0)
(-0.0912304 0.0268188 0)
(-0.0953699 0.0233743 0)
(-0.0989124 0.0196158 0)
(-0.101815 0.0155941 0)
(-0.104042 0.0113614 0)
(-0.105567 0.00697139 0)
(-0.106369 0.00247915 0)
(-0.000188731 0.00286788 0)
(-0.00126701 0.00879895 0)
(-0.00360026 0.0146895 0)
(-0.00693945 0.0203512 0)
(-0.0111305 0.0256354 0)
(-0.0160671 0.030422 0)
(-0.0216366 0.0346182 0)
(-0.0277234 0.0381565 0)
(-0.0342136 0.0409914 0)
(-0.0409948 0.0430973 0)
(-0.0479572 0.044465 0)
(-0.0549942 0.0450991 0)
(-0.0620032 0.0450162 0)
(-0.0688862 0.0442422 0)
(-0.0755509 0.0428108 0)
(-0.0819108 0.040762 0)
(-0.0878857 0.0381404 0)
(-0.0934023 0.0349948 0)
(-0.0983944 0.0313771 0)
(-0.102803 0.0273416 0)
(-0.106576 0.0229448 0)
(-0.10967 0.0182451 0)
(-0.112048 0.0133024 0)
(-0.113682 0.00817832 0)
(-0.114551 0.00293585 0)
(-0.0002066 0.00353858 0)
(-0.00138522 0.0106808 0)
(-0.00393215 0.0176554 0)
(-0.00757038 0.024276 0)
(-0.0121266 0.0303954 0)
(-0.0174804 0.0358944 0)
(-0.0235056 0.0406813 0)
(-0.0300741 0.04469 0)
(-0.0370605 0.0478773 0)
(-0.0443431 0.05022 0)
(-0.0518036 0.0517123 0)
(-0.0593284 0.0523633 0)
(-0.0668089 0.0521943 0)
(-0.0741424 0.0512369 0)
(-0.0812325 0.0495307 0)
(-0.0879895 0.0471222 0)
(-0.0943307 0.044063 0)
(-0.100181 0.0404091 0)
(-0.105472 0.0362195 0)
(-0.110143 0.031556 0)
(-0.114143 0.0264829 0)
(-0.117425 0.0210661 0)
(-0.119953 0.0153733 0)
(-0.121697 0.00947426 0)
(-0.122636 0.00343992 0)
(-0.000224279 0.00426868 0)
(-0.00150239 0.0127275 0)
(-0.00426147 0.0208766 0)
(-0.00819703 0.0285311 0)
(-0.0131168 0.0355454 0)
(-0.0188863 0.0418021 0)
(-0.0253657 0.0472119 0)
(-0.0324139 0.0517114 0)
(-0.0398943 0.0552606 0)
(-0.0476753 0.0578406 0)
(-0.05563 0.0594504 0)
(-0.0636376 0.0601045 0)
(-0.0715838 0.0598304 0)
(-0.079361 0.058666 0)
(-0.086869 0.0566581 0)
(-0.0940153 0.0538603 0)
(-0.100715 0.0503318 0)
(-0.106891 0.046136 0)
(-0.112474 0.0413398 0)
(-0.117403 0.0360127 0)
(-0.121624 0.0302267 0)
(-0.125092 0.0240554 0)
(-0.12777 0.0175747 0)
(-0.129626 0.0108619 0)
(-0.130639 0.00399625 0)
(-0.000241979 0.00505793 0)
(-0.00161961 0.0149384 0)
(-0.00459086 0.0243522 0)
(-0.00882378 0.0331156 0)
(-0.0141071 0.0410846 0)
(-0.0202922 0.0481444 0)
(-0.0272252 0.0542089 0)
(-0.0347521 0.0592187 0)
(-0.0427246 0.0631388 0)
(-0.0510009 0.0659557 0)
(-0.0594456 0.0676748 0)
(-0.0679307 0.0683172 0)
(-0.0763359 0.0679178 0)
(-0.0845491 0.0665222 0)
(-0.0924665 0.0641851 0)
(-0.0999931 0.0609682 0)
(-0.107042 0.0569387 0)
(-0.113535 0.0521682 0)
(-0.119402 0.0467316 0)
(-0.124582 0.0407064 0)
(-0.12902 0.0341726 0)
(-0.132671 0.0272117 0)
(-0.135497 0.0199071 0)
(-0.137467 0.0123442 0)
(-0.138559 0.00461006 0)
(-0.000259883 0.00590664 0)
(-0.00173785 0.0173142 0)
(-0.00492271 0.0280832 0)
(-0.00945468 0.0380305 0)
(-0.0151031 0.0470137 0)
(-0.021705 0.0549216 0)
(-0.0290921 0.0616719 0)
(-0.0370971 0.0672108 0)
(-0.0455598 0.0715096 0)
(-0.054328 0.0745617 0)
(-0.0632577 0.0763803 0)
(-0.0722135 0.0769949 0)
(-0.0810695 0.0764489 0)
(-0.0897092 0.0747968 0)
(-0.0980257 0.0721023 0)
(-0.105922 0.068436 0)
(-0.113309 0.0638739 0)
(-0.120108 0.0584964 0)
(-0.12625 0.0523867 0)
(-0.131672 0.0456307 0)
(-0.13632 0.0383161 0)
(-0.14015 0.0305323 0)
(-0.143122 0.0223706 0)
(-0.145207 0.0139238 0)
(-0.146381 0.00528673 0)
(-0.000278153 0.00681559 0)
(-0.00185801 0.0198565 0)
(-0.00525925 0.0320718 0)
(-0.0100934 0.043278 0)
(-0.0161101 0.0533349 0)
(-0.023131 0.0621348 0)
(-0.0309734 0.0696012 0)
(-0.0394561 0.0756865 0)
(-0.0484068 0.0803699 0)
(-0.0576627 0.0836537 0)
(-0.0670707 0.0855603 0)
(-0.0764886 0.0861291 0)
(-0.0857848 0.0854136 0)
(-0.0948388 0.0834785 0)
(-0.103541 0.0803976 0)
(-0.111792 0.0762513 0)
(-0.119503 0.0711254 0)
(-0.126595 0.0651093 0)
(-0.132998 0.0582951 0)
(-0.138651 0.050777 0)
(-0.143501 0.0426508 0)
(-0.147503 0.0340137 0)
(-0.150619 0.0249643 0)
(-0.152818 0.015603 0)
(-0.154078 0.0060316 0)
(-0.000296934 0.00778601 0)
(-0.0019809 0.0225683 0)
(-0.00560251 0.0363217 0)
(-0.0107436 0.048862 0)
(-0.0171327 0.0600513 0)
(-0.0245761 0.0697865 0)
(-0.0328755 0.0779972 0)
(-0.0418355 0.0846443 0)
(-0.051271 0.0897162 0)
(-0.0610086 0.0932256 0)
(-0.0708864 0.0952063 0)
(-0.0807549 0.095709 0)
(-0.0904775 0.0947991 0)
(-0.09993 0.092553 0)
(-0.109 0.0890555 0)
(-0.117588 0.0843983 0)
(-0.125605 0.0786773 0)
(-0.132972 0.0719918 0)
(-0.13962 0.064443 0)
(-0.14549 0.0561337 0)
(-0.150529 0.0471678 0)
(-0.154694 0.0376499 0)
(-0.157947 0.0276858 0)
(-0.16026 0.0173828 0)
(-0.161607 0.0068497 0)
(-0.000316364 0.00881951 0)
(-0.00210731 0.0254533 0)
(-0.00595445 0.0408377 0)
(-0.0114083 0.0547876 0)
(-0.0181754 0.0671675 0)
(-0.0260454 0.0778794 0)
(-0.0348037 0.0868608 0)
(-0.04424 0.0940821 0)
(-0.0541561 0.0995432 0)
(-0.0643674 0.103269 0)
(-0.0747034 0.105307 0)
(-0.0850076 0.10572 0)
(-0.0951385 0.104589 0)
(-0.104969 0.102001 0)
(-0.114385 0.098056 0)
(-0.123287 0.0928562 0)
(-0.131585 0.0865091 0)
(-0.139204 0.0791243 0)
(-0.146075 0.0708127 0)
(-0.152142 0.0616856 0)
(-0.157354 0.0518548 0)
(-0.161669 0.0414322 0)
(-0.165052 0.0305305 0)
(-0.167474 0.0192632 0)
(-0.168912 0.00774544 0)
(-0.000336581 0.00991813 0)
(-0.00223799 0.0285164 0)
(-0.006317 0.0456262 0)
(-0.0120909 0.0610611 0)
(-0.0192427 0.0746885 0)
(-0.0275439 0.0864166 0)
(-0.036763 0.0961921 0)
(-0.0466736 0.103997 0)
(-0.057064 0.109844 0)
(-0.0677384 0.113773 0)
(-0.0785171 0.115846 0)
(-0.0892374 0.116144 0)
(-0.0997533 0.11476 0)
(-0.109935 0.111799 0)
(-0.119668 0.107373 0)
(-0.128853 0.101598 0)
(-0.137404 0.0945945 0)
(-0.145245 0.0864818 0)
(-0.152312 0.077381 0)
(-0.158551 0.0674124 0)
(-0.163914 0.0566952 0)
(-0.168363 0.0453486 0)
(-0.171864 0.0334911 0)
(-0.17439 0.0212422 0)
(-0.175916 0.00872224 0)
(-0.000357726 0.0110843 0)
(-0.00237377 0.0317632 0)
(-0.00669215 0.0506945 0)
(-0.0127946 0.0676901 0)
(-0.0203386 0.0826207 0)
(-0.0290764 0.0954017 0)
(-0.0387577 0.105991 0)
(-0.0491393 0.114383 0)
(-0.0599953 0.120608 0)
(-0.0711183 0.124722 0)
(-0.0823198 0.126806 0)
(-0.093431 0.126956 0)
(-0.104302 0.125286 0)
(-0.114802 0.121916 0)
(-0.124816 0.116974 0)
(-0.134247 0.110592 0)
(-0.143011 0.1029 0)
(-0.151037 0.0940323 0)
(-0.158265 0.0841186 0)
(-0.164644 0.073288 0)
(-0.170132 0.0616675 0)
(-0.174693 0.0493823 0)
(-0.178296 0.0365568 0)
(-0.180915 0.0233151 0)
(-0.182528 0.00978219 0)
(-0.000379962 0.0123208 0)
(-0.00251554 0.0352004 0)
(-0.00708212 0.0560513 0)
(-0.0135231 0.0746831 0)
(-0.021468 0.0909706 0)
(-0.0306478 0.104838 0)
(-0.0407919 0.116255 0)
(-0.0516393 0.125234 0)
(-0.062949 0.131823 0)
(-0.0745016 0.136098 0)
(-0.0861001 0.138159 0)
(-0.0975699 0.138126 0)
(-0.108758 0.136131 0)
(-0.119534 0.132313 0)
(-0.129784 0.126818 0)
(-0.139414 0.119793 0)
(-0.148345 0.111384 0)
(-0.15651 0.101736 0)
(-0.163856 0.0909883 0)
(-0.170336 0.0792797 0)
(-0.175914 0.0667438 0)
(-0.180558 0.0535118 0)
(-0.184241 0.0397127 0)
(-0.18694 0.0254745 0)
(-0.188635 0.0109255 0)
(-0.000403476 0.0136311 0)
(-0.00266433 0.0388361 0)
(-0.00748944 0.0617066 0)
(-0.0142803 0.0820501 0)
(-0.0226359 0.0997456 0)
(-0.0322633 0.114728 0)
(-0.04287 0.126983 0)
(-0.0541754 0.13654 0)
(-0.0659227 0.143471 0)
(-0.0778804 0.147874 0)
(-0.0898429 0.149874 0)
(-0.101631 0.149615 0)
(-0.11309 0.14725 0)
(-0.124089 0.142942 0)
(-0.13452 0.136855 0)
(-0.144291 0.129152 0)
(-0.153331 0.119996 0)
(-0.161579 0.109543 0)
(-0.168989 0.0979444 0)
(-0.175522 0.0853463 0)
(-0.181148 0.0718892 0)
(-0.185839 0.0577092 0)
(-0.189575 0.0429389 0)
(-0.192336 0.027709 0)
(-0.194104 0.0121499 0)
(-0.000428499 0.0150191 0)
(-0.00282142 0.0426793 0)
(-0.00791717 0.0676723 0)
(-0.0150713 0.0898022 0)
(-0.0238483 0.108954 0)
(-0.0339291 0.125074 0)
(-0.0449965 0.138168 0)
(-0.056749 0.148287 0)
(-0.0689127 0.155528 0)
(-0.081244 0.160018 0)
(-0.0935292 0.16191 0)
(-0.105585 0.161373 0)
(-0.117257 0.158589 0)
(-0.128416 0.153743 0)
(-0.138959 0.14702 0)
(-0.148802 0.138604 0)
(-0.157881 0.128672 0)
(-0.166145 0.117394 0)
(-0.173555 0.104931 0)
(-0.180082 0.0914378 0)
(-0.185702 0.0770605 0)
(-0.190398 0.0619394 0)
(-0.194153 0.0462096 0)
(-0.196952 0.0300029 0)
(-0.19878 0.0134504 0)
(-0.000455323 0.0164893 0)
(-0.00298837 0.0467412 0)
(-0.00836911 0.073962 0)
(-0.0159019 0.0979523 0)
(-0.0251128 0.118604 0)
(-0.0356526 0.135879 0)
(-0.047177 0.149803 0)
(-0.0593614 0.160457 0)
(-0.0719142 0.167966 0)
(-0.0845792 0.17249 0)
(-0.0971354 0.174215 0)
(-0.109397 0.173342 0)
(-0.12121 0.170081 0)
(-0.132452 0.164644 0)
(-0.143025 0.15724 0)
(-0.152856 0.148074 0)
(-0.16189 0.137338 0)
(-0.170088 0.125216 0)
(-0.177422 0.111881 0)
(-0.183872 0.0974937 0)
(-0.189427 0.0822056 0)
(-0.194074 0.0661598 0)
(-0.197806 0.0494926 0)
(-0.200613 0.0323355 0)
(-0.202483 0.0148182 0)
(-0.00048432 0.0180475 0)
(-0.0031672 0.0510347 0)
(-0.00885001 0.0805918 0)
(-0.0167796 0.106515 0)
(-0.0264383 0.128705 0)
(-0.0374426 0.147142 0)
(-0.0494179 0.161877 0)
(-0.0620141 0.173025 0)
(-0.0749208 0.180746 0)
(-0.0878693 0.185239 0)
(-0.100633 0.186727 0)
(-0.113023 0.185447 0)
(-0.124892 0.181643 0)
(-0.136123 0.175557 0)
(-0.146628 0.167424 0)
(-0.156348 0.157469 0)
(-0.165238 0.145904 0)
(-0.173274 0.132925 0)
(-0.180441 0.118715 0)
(-0.186732 0.103442 0)
(-0.192146 0.0872618 0)
(-0.196683 0.0703187 0)
(-0.200342 0.0527483 0)
(-0.20312 0.0346801 0)
(-0.20501 0.0162405 0)
(-0.000515974 0.0197002 0)
(-0.00336047 0.0555755 0)
(-0.00936599 0.0875811 0)
(-0.0177141 0.115508 0)
(-0.0278365 0.139268 0)
(-0.0393105 0.158862 0)
(-0.0517271 0.174375 0)
(-0.0647084 0.18596 0)
(-0.0779242 0.193821 0)
(-0.0910939 0.198202 0)
(-0.103985 0.199369 0)
(-0.116413 0.197601 0)
(-0.128233 0.193179 0)
(-0.139341 0.18638 0)
(-0.149663 0.177465 0)
(-0.159152 0.166683 0)
(-0.167783 0.154264 0)
(-0.175545 0.140419 0)
(-0.18244 0.125339 0)
(-0.188476 0.109199 0)
(-0.193664 0.0921557 0)
(-0.198017 0.0743548 0)
(-0.201543 0.055929 0)
(-0.204247 0.0370037 0)
(-0.206129 0.0176996 0)
(-0.000550922 0.0214557 0)
(-0.00357152 0.0603827 0)
(-0.00992485 0.094953 0)
(-0.0187172 0.124952 0)
(-0.0293217 0.150303 0)
(-0.04127 0.171036 0)
(-0.0541141 0.187276 0)
(-0.0674457 0.199222 0)
(-0.080914 0.207131 0)
(-0.094227 0.2113 0)
(-0.10715 0.212045 0)
(-0.119502 0.209695 0)
(-0.131149 0.204571 0)
(-0.142002 0.196986 0)
(-0.152003 0.187235 0)
(-0.161124 0.175589 0)
(-0.16936 0.162296 0)
(-0.176719 0.147581 0)
(-0.183221 0.131645 0)
(-0.188891 0.114666 0)
(-0.193756 0.0968022 0)
(-0.19784 0.0781968 0)
(-0.201164 0.0589784 0)
(-0.203743 0.039266 0)
(-0.205581 0.0191725 0)
(-0.000589997 0.0233242 0)
(-0.00380468 0.0654796 0)
(-0.0105367 0.102735 0)
(-0.0198045 0.134869 0)
(-0.0309121 0.161822 0)
(-0.0433382 0.183658 0)
(-0.0565902 0.200551 0)
(-0.0702267 0.21276 0)
(-0.0838756 0.220602 0)
(-0.0972356 0.224437 0)
(-0.110072 0.224643 0)
(-0.122213 0.2216 0)
(-0.133539 0.215679 0)
(-0.14398 0.207232 0)
(-0.1535 0.196586 0)
(-0.162095 0.184039 0)
(-0.169781 0.169858 0)
(-0.176589 0.154279 0)
(-0.182561 0.13751 0)
(-0.187739 0.119732 0)
(-0.192169 0.101104 0)
(-0.19589 0.081763 0)
(-0.198934 0.0618315 0)
(-0.201326 0.0414197 0)
(-0.203079 0.0206303 0)
(-0.000634304 0.0253185 0)
(-0.0040656 0.0708953 0)
(-0.0112144 0.110963 0)
(-0.0209953 0.14529 0)
(-0.0326303 0.173838 0)
(-0.0455356 0.196718 0)
(-0.059168 0.214165 0)
(-0.0730501 0.226507 0)
(-0.086789 0.23414 0)
(-0.100076 0.237496 0)
(-0.112683 0.237022 0)
(-0.12445 0.233161 0)
(-0.13528 0.226337 0)
(-0.145125 0.216946 0)
(-0.153979 0.205348 0)
(-0.161864 0.191868 0)
(-0.168824 0.176789 0)
(-0.174916 0.16036 0)
(-0.180203 0.142794 0)
(-0.184751 0.124273 0)
(-0.188623 0.104952 0)
(-0.191874 0.0849613 0)
(-0.19455 0.0644144 0)
(-0.196688 0.0434101 0)
(-0.198306 0.0220381 0)
(-0.000685314 0.0274545 0)
(-0.00436166 0.076666 0)
(-0.0119748 0.119676 0)
(-0.0223145 0.156245 0)
(-0.0345042 0.186364 0)
(-0.0478865 0.210201 0)
(-0.0618608 0.228067 0)
(-0.075911 0.240381 0)
(-0.089625 0.247628 0)
(-0.102692 0.25033 0)
(-0.114893 0.249015 0)
(-0.126092 0.244195 0)
(-0.136218 0.236353 0)
(-0.145255 0.22593 0)
(-0.153231 0.213324 0)
(-0.160199 0.198883 0)
(-0.166235 0.182908 0)
(-0.171425 0.165656 0)
(-0.175858 0.147344 0)
(-0.179623 0.128151 0)
(-0.182802 0.108226 0)
(-0.185468 0.08769 0)
(-0.187681 0.0666448 0)
(-0.189488 0.0451751 0)
(-0.190918 0.0233551 0)
(-0.000744998 0.0297528 0)
(-0.00470261 0.0828373 0)
(-0.0128394 0.128929 0)
(-0.0237933 0.167777 0)
(-0.0365681 0.199413 0)
(-0.0504191 0.22408 0)
(-0.064681 0.242191 0)
(-0.0787976 0.254271 0)
(-0.0923406 0.26092 0)
(-0.105003 0.262763 0)
(-0.116587 0.26042 0)
(-0.126985 0.254483 0)
(-0.136164 0.245499 0)
(-0.144149 0.233957 0)
(-0.151004 0.22029 0)
(-0.156824 0.204871 0)
(-0.161718 0.188013 0)
(-0.165804 0.169982 0)
(-0.169199 0.150991 0)
(-0.172017 0.131216 0)
(-0.174359 0.110796 0)
(-0.176317 0.0898395 0)
(-0.177964 0.0684337 0)
(-0.179359 0.0466467 0)
(-0.180542 0.0245347 0)
(-0.000816027 0.0322396 0)
(-0.0051013 0.0894667 0)
(-0.0138363 0.138783 0)
(-0.025471 0.179929 0)
(-0.0388631 0.212993 0)
(-0.0531643 0.23832 0)
(-0.067637 0.256446 0)
(-0.0816852 0.26804 0)
(-0.0948711 0.273833 0)
(-0.106902 0.274575 0)
(-0.117611 0.270995 0)
(-0.126933 0.26377 0)
(-0.134883 0.253514 0)
(-0.141533 0.240768 0)
(-0.146998 0.225997 0)
(-0.151412 0.209595 0)
(-0.154927 0.191886 0)
(-0.157692 0.173136 0)
(-0.159856 0.153556 0)
(-0.161554 0.13331 0)
(-0.16291 0.112525 0)
(-0.164032 0.0912941 0)
(-0.165008 0.0696867 0)
(-0.165906 0.0477519 0)
(-0.166777 0.0255255 0)
(-0.000902061 0.034949 0)
(-0.00557491 0.0966274 0)
(-0.0150017 0.149318 0)
(-0.027397 0.192756 0)
(-0.0414376 0.22711 0)
(-0.0561534 0.252861 0)
(-0.0707279 0.270713 0)
(-0.0845288 0.281504 0)
(-0.0971193 0.286135 0)
(-0.108236 0.285501 0)
(-0.117759 0.280448 0)
(-0.12568 0.271752 0)
(-0.132074 0.260096 0)
(-0.137074 0.246069 0)
(-0.140847 0.230167 0)
(-0.143579 0.212797 0)
(-0.145461 0.194291 0)
(-0.14668 0.174909 0)
(-0.14741 0.154852 0)
(-0.147814 0.13427 0)
(-0.148034 0.113273 0)
(-0.148192 0.0919358 0)
(-0.14839 0.0703073 0)
(-0.148707 0.0484152 0)
(-0.149201 0.0262729 0)
(-0.00100821 0.0379255 0)
(-0.0061466 0.104413 0)
(-0.0163831 0.160629 0)
(-0.0296324 0.206314 0)
(-0.0443472 0.241755 0)
(-0.0594144 0.267617 0)
(-0.0739348 0.284822 0)
(-0.0872492 0.294429 0)
(-0.098939 0.297537 0)
(-0.108791 0.295211 0)
(-0.116752 0.288435 0)
(-0.122891 0.278081 0)
(-0.127359 0.264905 0)
(-0.130356 0.249538 0)
(-0.132113 0.232499 0)
(-0.132868 0.214206 0)
(-0.132855 0.194984 0)
(-0.132296 0.175084 0)
(-0.131395 0.154689 0)
(-0.130334 0.133933 0)
(-0.129272 0.112902 0)
(-0.128345 0.0916494 0)
(-0.127665 0.0702011 0)
(-0.127319 0.0485618 0)
(-0.127371 0.0267211 0)
(-0.00114173 0.0412278 0)
(-0.00684806 0.112943 0)
(-0.0180424 0.172834 0)
(-0.0322528 0.220665 0)
(-0.0476523 0.256898 0)
(-0.0629632 0.282456 0)
(-0.0772061 0.298547 0)
(-0.0897128 0.306505 0)
(-0.10011 0.307673 0)
(-0.108264 0.303309 0)
(-0.114217 0.294544 0)
(-0.118133 0.282354 0)
(-0.120255 0.267556 0)
(-0.120866 0.250819 0)
(-0.120262 0.232675 0)
(-0.118736 0.213536 0)
(-0.116567 0.193717 0)
(-0.114007 0.173447 0)
(-0.111286 0.152888 0)
(-0.108602 0.132146 0)
(-0.106128 0.111283 0)
(-0.104008 0.090328 0)
(-0.102361 0.0692807 0)
(-0.10128 0.0481216 0)
(-0.100833 0.0268161 0)
(-0.00131327 0.0449346 0)
(-0.00772333 0.122372 0)
(-0.0200616 0.186073 0)
(-0.0353497 0.235864 0)
(-0.0514124 0.272472 0)
(-0.0667892 0.297178 0)
(-0.0804335 0.31157 0)
(-0.0917012 0.317328 0)
(-0.100305 0.316082 0)
(-0.106229 0.309311 0)
(-0.109643 0.298297 0)
(-0.110834 0.284113 0)
(-0.110151 0.267632 0)
(-0.107967 0.249539 0)
(-0.10465 0.230366 0)
(-0.100547 0.210508 0)
(-0.0959728 0.190253 0)
(-0.0912102 0.169801 0)
(-0.0865043 0.149283 0)
(-0.0820661 0.128774 0)
(-0.0780736 0.108307 0)
(-0.0746752 0.0878815 0)
(-0.0719916 0.0674723 0)
(-0.0701181 0.0470344 0)
(-0.0691261 0.0265094 0)
(-0.00153887 0.0491526 0)
(-0.00883492 0.1329 0)
(-0.0225483 0.200512 0)
(-0.0390304 0.25195 0)
(-0.0556743 0.288344 0)
(-0.0708285 0.311483 0)
(-0.0834137 0.323454 0)
(-0.0928642 0.326368 0)
(-0.099037 0.322191 0)
(-0.102085 0.312637 0)
(-0.102344 0.29914 0)
(-0.100249 0.282854 0)
(-0.096272 0.264683 0)
(-0.0908789 0.245313 0)
(-0.0845071 0.22525 0)
(-0.0775513 0.204856 0)
(-0.0703585 0.184379 0)
(-0.0632279 0.163977 0)
(-0.0564135 0.143743 0)
(-0.0501285 0.123714 0)
(-0.0445495 0.103892 0)
(-0.0398215 0.084246 0)
(-0.0360614 0.0647237 0)
(-0.0333617 0.0452564 0)
(-0.0317927 0.0257625 0)
(-0.00184371 0.0540299 0)
(-0.0102736 0.144786 0)
(-0.0256452 0.216338 0)
(-0.043413 0.268915 0)
(-0.0604461 0.304274 0)
(-0.0749183 0.324921 0)
(-0.0857867 0.333595 0)
(-0.0926499 0.332937 0)
(-0.0955893 0.325288 0)
(-0.0949896 0.312604 0)
(-0.091396 0.29645 0)
(-0.0854137 0.278032 0)
(-0.0776439 0.258254 0)
(-0.0686451 0.237769 0)
(-0.058915 0.217034 0)
(-0.0488836 0.196356 0)
(-0.0389151 0.175928 0)
(-0.0293127 0.155855 0)
(-0.0203262 0.136183 0)
(-0.0121596 0.11691 0)
(-0.00497815 0.098 0)
(0.00108486 0.0793937 0)
(0.00592289 0.061013 0)
(0.00945176 0.0427664 0)
(0.0116064 0.0245524 0)
(-0.00226894 0.0597771 0)
(-0.0121739 0.15837 0)
(-0.029538 0.233744 0)
(-0.0486103 0.28666 0)
(-0.0656474 0.319848 0)
(-0.0787172 0.33682 0)
(-0.0869379 0.341166 0)
(-0.0902014 0.336149 0)
(-0.0889186 0.324511 0)
(-0.0837775 0.308426 0)
(-0.0755707 0.289549 0)
(-0.0650883 0.269091 0)
(-0.0530573 0.247906 0)
(-0.0401146 0.226578 0)
(-0.0267987 0.205484 0)
(-0.0135545 0.184853 0)
(-0.000742962 0.164806 0)
(0.011347 0.145388 0)
(0.0224859 0.12659 0)
(0.0324925 0.108367 0)
(0.0412241 0.0906483 0)
(0.0485684 0.0733457 0)
(0.0544366 0.0563578 0)
(0.0587585 0.0395739 0)
(0.0614787 0.0228764 0)
(-0.00288451 0.0667016 0)
(-0.0147396 0.174085 0)
(-0.0344605 0.252895 0)
(-0.0546852 0.304908 0)
(-0.0710121 0.334368 0)
(-0.0815689 0.346195 0)
(-0.0858453 0.345047 0)
(-0.0842077 0.334886 0)
(-0.0775221 0.318837 0)
(-0.0668494 0.299234 0)
(-0.0532544 0.277743 0)
(-0.0377059 0.255506 0)
(-0.0210347 0.233271 0)
(-0.00392464 0.211504 0)
(0.0130766 0.190471 0)
(0.0295401 0.170299 0)
(0.045135 0.151025 0)
(0.0596092 0.132626 0)
(0.0727722 0.115038 0)
(0.0844806 0.0981727 0)
(0.0946261 0.0819254 0)
(0.103127 0.0661826 0)
(0.109918 0.0508243 0)
(0.11495 0.0357257 0)
(0.118181 0.0207583 0)
(-0.00381327 0.075269 0)
(-0.0182819 0.192482 0)
(-0.0406805 0.273844 0)
(-0.0615462 0.323048 0)
(-0.0759021 0.346693 0)
(-0.0822724 0.351615 0)
(-0.0808452 0.343753 0)
(-0.0726941 0.327779 0)
(-0.0592697 0.307115 0)
(-0.0420517 0.284131 0)
(-0.0223679 0.260386 0)
(-0.00132714 0.236858 0)
(0.0201874 0.214117 0)
(0.0414962 0.192462 0)
(0.06209 0.172018 0)
(0.0815958 0.152795 0)
(0.0997451 0.134738 0)
(0.116348 0.117752 0)
(0.131273 0.10172 0)
(0.14443 0.0865147 0)
(0.155754 0.0720044 0)
(0.165204 0.0580557 0)
(0.172745 0.0445359 0)
(0.178352 0.0313124 0)
(0.182001 0.0182522 0)
(-0.00527451 0.0862079 0)
(-0.0232683 0.214213 0)
(-0.0484247 0.296337 0)
(-0.0687098 0.339875 0)
(-0.0789597 0.355006 0)
(-0.0787021 0.351063 0)
(-0.0692845 0.335388 0)
(-0.0527434 0.313244 0)
(-0.0312045 0.288147 0)
(-0.00655046 0.2623 0)
(0.0196976 0.236998 0)
(0.0463793 0.212938 0)
(0.0726455 0.190442 0)
(0.0978963 0.169599 0)
(0.121722 0.150371 0)
(0.143851 0.132645 0)
(0.164114 0.116275 0)
(0.182408 0.101101 0)
(0.198677 0.0869598 0)
(0.212896 0.0736946 0)
(0.225057 0.0611541 0)
(0.235159 0.0491944 0)
(0.243205 0.037678 0)
(0.249197 0.0264719 0)
(0.253129 0.015446 0)
(-0.0076544 0.100683 0)
(-0.030355 0.23992 0)
(-0.0576314 0.319433 0)
(-0.0747828 0.353155 0)
(-0.0774705 0.356503 0)
(-0.0672014 0.341804 0)
(-0.0470325 0.317672 0)
(-0.0201541 0.28961 0)
(0.0106617 0.260865 0)
(0.0432628 0.233193 0)
(0.0760965 0.207436 0)
(0.108101 0.1839 0)
(0.138585 0.162596 0)
(0.167123 0.143386 0)
(0.193471 0.126065 0)
(0.217508 0.110406 0)
(0.239194 0.096185 0)
(0.258533 0.0831923 0)
(0.275559 0.0712349 0)
(0.290318 0.0601385 0)
(0.302858 0.0497449 0)
(0.313228 0.0399098 0)
(0.321465 0.0305001 0)
(0.327597 0.0213907 0)
(0.33164 0.0124613 0)
(-0.0115741 0.120523 0)
(-0.0402531 0.269849 0)
(-0.0672413 0.340745 0)
(-0.0763672 0.358994 0)
(-0.0662428 0.347103 0)
(-0.0416697 0.320412 0)
(-0.00785726 0.288177 0)
(0.0309108 0.255446 0)
(0.0714896 0.224672 0)
(0.111771 0.196835 0)
(0.150443 0.172147 0)
(0.186754 0.150448 0)
(0.220316 0.131423 0)
(0.250977 0.114719 0)
(0.278721 0.0999917 0)
(0.303614 0.0869284 0)
(0.325761 0.0752569 0)
(0.345285 0.0647416 0)
(0.362308 0.0551804 0)
(0.376949 0.0463994 0)
(0.38931 0.0382474 0)
(0.39948 0.0305913 0)
(0.40753 0.0233117 0)
(0.413513 0.0162991 0)
(0.417461 0.0094504 0)
(-0.0177485 0.14855 0)
(-0.0528821 0.30281 0)
(-0.0732995 0.355066 0)
(-0.0658499 0.351045 0)
(-0.0357681 0.321364 0)
(0.00765744 0.283172 0)
(0.0572144 0.244934 0)
(0.108135 0.210188 0)
(0.157552 0.179982 0)
(0.203924 0.154244 0)
(0.246547 0.132471 0)
(0.285207 0.114049 0)
(0.319959 0.0983955 0)
(0.350993 0.0850024 0)
(0.378553 0.0734466 0)
(0.4029 0.0633823 0)
(0.424283 0.0545285 0)
(0.442929 0.0466569 0)
(0.45904 0.0395806 0)
(0.472792 0.0331449 0)
(0.484329 0.0272199 0)
(0.493771 0.0216943 0)
(0.501214 0.0164711 0)
(0.506726 0.0114627 0)
(0.510354 0.00658819 0)
(-0.0258806 0.189372 0)
(-0.0643844 0.333672 0)
(-0.0643981 0.351754 0)
(-0.0272763 0.319467 0)
(0.0304606 0.272792 0)
(0.0955016 0.227022 0)
(0.160221 0.187481 0)
(0.220819 0.155021 0)
(0.275751 0.128865 0)
(0.324688 0.107854 0)
(0.367882 0.0908881 0)
(0.405821 0.0770606 0)
(0.439056 0.0656606 0)
(0.468119 0.0561448 0)
(0.49349 0.0481 0)
(0.515586 0.0412118 0)
(0.534762 0.0352383 0)
(0.551318 0.0299916 0)
(0.565504 0.0253238 0)
(0.577523 0.0211161 0)
(0.587545 0.0172714 0)
(0.595702 0.0137089 0)
(0.602098 0.010359 0)
(0.606811 0.00716032 0)
(0.609892 0.00405691 0)
(-0.0296293 0.246724 0)
(-0.0583989 0.346547 0)
(-0.0119576 0.311495 0)
(0.0703986 0.251533 0)
(0.159094 0.196214 0)
(0.242193 0.152098 0)
(0.31563 0.118865 0)
(0.37876 0.0942148 0)
(0.432448 0.0758296 0)
(0.478012 0.0619134 0)
(0.516752 0.051184 0)
(0.549797 0.0427495 0)
(0.57808 0.0359911 0)
(0.602355 0.0304767 0)
(0.623226 0.0259002 0)
(0.641176 0.0220407 0)
(0.656591 0.0187358 0)
(0.669781 0.0158639 0)
(0.680996 0.0133319 0)
(0.690434 0.0110671 0)
(0.698254 0.00901135 0)
(0.704582 0.00711693 0)
(0.709514 0.0053437 0)
(0.713121 0.00365666 0)