unknown system                          
   1.00000000000000     
     3.459762   -0.000000    1.997495
     1.153254    3.261896    1.997495
    -0.000000   -0.000000    3.994989
   Na   Cl
     1     1
Direct
  0.000000  0.000000  0.000000
  0.500000  0.500000  0.500000
 
   48   48   48
 0.90288428975E+02 0.11525556551E+04 0.11305283636E+04 0.72140054590E+03 0.40310157604E+03
 0.21559862157E+03 0.11411761789E+03 0.60630997784E+02 0.32629918337E+02 0.17939698104E+02
 0.10150945070E+02 0.59481190129E+01 0.36547817798E+01 0.24154095061E+01 0.17877250667E+01
 0.14922602637E+01 0.13643093402E+01 0.13179438179E+01 0.13118188885E+01 0.13262859730E+01
 0.13506747547E+01 0.13775711972E+01 0.14011266216E+01 0.14170079775E+01 0.14225917402E+01
 0.14170079775E+01 0.14011266216E+01 0.13775711972E+01 0.13506747547E+01 0.13262859730E+01
 0.13118188885E+01 0.13179438179E+01 0.13643093402E+01 0.14922602637E+01 0.17877250667E+01
 0.24154095061E+01 0.36547817798E+01 0.59481190129E+01 0.10150945070E+02 0.17939698104E+02
 0.32629918337E+02 0.60630997784E+02 0.11411761789E+03 0.21559862157E+03 0.40310157604E+03
 0.72140054590E+03 0.11305283636E+04 0.11525556551E+04 0.11525558987E+04 0.12149045505E+04
 0.86549137508E+03 0.51135007962E+03 0.28065792586E+03 0.15025988630E+03 0.80127573902E+02
 0.43035368689E+02 0.23492208737E+02 0.13144406329E+02 0.75884470857E+01 0.45548990714E+01
 0.29019906411E+01 0.20312511256E+01 0.16067769722E+01 0.14148180267E+01 0.13375828319E+01
 0.13163701714E+01 0.13234070332E+01 0.13448120241E+01 0.13719919433E+01 0.13983882108E+01
 0.14188893316E+01 0.14300099392E+01 0.14300099392E+01 0.14188893316E+01 0.13983882108E+01
 0.13719919433E+01 0.13448120241E+01 0.13234070332E+01 0.13163701714E+01 0.13375828319E+01
 0.14148180267E+01 0.16067769722E+01 0.20312511256E+01 0.29019906411E+01 0.45548990714E+01
 0.75884471424E+01 0.13144406601E+02 0.23492209596E+02 0.43035370802E+02 0.80127578221E+02
 0.15025989377E+03 0.28065793607E+03 0.51135008568E+03 0.86549134690E+03 0.12149044101E+04
 0.11525556928E+04 0.11305284900E+04 0.86549139508E+03 0.55567087868E+03 0.32286448027E+03
 0.17914993084E+03 0.97668342143E+02 0.53126931638E+02 0.29153468452E+02 0.16298540280E+02
 0.93571960397E+01 0.55297713218E+01 0.34623687226E+01 0.23279405540E+01 0.17552979811E+01
 0.14873119231E+01 0.13733555220E+01 0.13349537579E+01 0.13341930248E+01 0.13527641878E+01
 0.13803999114E+01 0.14097702656E+01 0.14350555301E+01 0.14519565355E+01 0.14578769953E+01
 0.14519565355E+01 0.14350555301E+01 0.14097702656E+01 0.13803999114E+01 0.13527641878E+01
 0.13341930248E+01 0.13349537579E+01 0.13733555220E+01 0.14873119231E+01 0.17552979811E+01
 0.23279405540E+01 0.34623687226E+01 0.55297713218E+01 0.93571962608E+01 0.16298541134E+02
 0.29153470847E+02 0.53126937014E+02 0.97668352285E+02 0.17914994692E+03 0.32286449958E+03
 0.55567088558E+03 0.86549135000E+03 0.11305283832E+04 0.12149045762E+04 0.72140056290E+03
 0.51135007142E+03 0.32286447313E+03 0.19034899029E+03 0.10826952597E+03 0.60633589884E+02
 0.33909299335E+02 0.19162610321E+02 0.11049548617E+02 0.65530676256E+01 0.40437376195E+01
 0.26549418873E+01 0.19284448564E+01 0.15773733905E+01 0.14222831182E+01 0.13649139387E+01
 0.13561601708E+01 0.13723260458E+01 0.14009373169E+01 0.14337499047E+01 0.14642813669E+01
 0.14874836511E+01 0.14999364574E+01 0.14999364574E+01 0.14874836511E+01 0.14642813669E+01
 0.14337499047E+01 0.14009373169E+01 0.13723260458E+01 0.13561601708E+01 0.13649139387E+01
 0.14222831182E+01 0.15773733905E+01 0.19284448564E+01 0.26549418873E+01 0.40437376195E+01
 0.65530677197E+01 0.11049549131E+02 0.19162612045E+02 0.33909303686E+02 0.60633598883E+02
 0.10826954169E+03 0.19034901324E+03 0.32286449847E+03 0.51135008441E+03 0.72140054852E+03
 0.86549138333E+03 0.86549140024E+03 0.40310155310E+03 0.28065790574E+03 0.17914991942E+03
 0.10826952202E+03 0.63429952294E+02 0.36655667835E+02 0.21191783244E+02 0.12401760382E+02
 0.74153680861E+01 0.45756447397E+01 0.29767258190E+01 0.21097031684E+01 0.16771383503E+01
 0.14798560995E+01 0.14028593522E+01 0.13863015580E+01 0.14007504679E+01 0.14311442358E+01
 0.14681613023E+01 0.15046712085E+01 0.15349444370E+01 0.15547859753E+01 0.15616777849E+01
 0.15547859753E+01 0.15349444370E+01 0.15046712085E+01 0.14681613023E+01 0.14311442358E+01
 0.14007504679E+01 0.13863015580E+01 0.14028593522E+01 0.14798560995E+01 0.16771383503E+01
 0.21097031684E+01 0.29767258190E+01 0.45756447397E+01 0.74153682817E+01 0.12401761266E+02
 0.21191785892E+02 0.36655673974E+02 0.63429964070E+02 0.10826954108E+03 0.17914994516E+03
 0.28065793296E+03 0.40310157249E+03 0.51135007724E+03 0.55567087741E+03 0.51135007031E+03
 0.21559859363E+03 0.15025986705E+03 0.97668331644E+02 0.60633585517E+02 0.36655666668E+02
 0.21928860094E+02 0.13158184624E+02 0.80059330561E+01 0.49834863367E+01 0.32504266940E+01
 0.22768676278E+01 0.17753981057E+01 0.15398548289E+01 0.14445296264E+01 0.14210473360E+01
 0.14347559497E+01 0.14679606024E+01 0.15101701229E+01 0.15536095075E+01 0.15919272398E+01
 0.16202116969E+01 0.16351712400E+01 0.16351712400E+01 0.16202116969E+01 0.15919272398E+01
 0.15536095075E+01 0.15101701229E+01 0.14679606024E+01 0.14347559497E+01 0.14210473360E+01
 0.14445296264E+01 0.15398548289E+01 0.17753981057E+01 0.22768676278E+01 0.32504266940E+01
 0.49834863367E+01 0.80059333666E+01 0.13158185841E+02 0.21928863416E+02 0.36655673794E+02
 0.60633598208E+02 0.97668350662E+02 0.15025989079E+03 0.21559861725E+03 0.28065792088E+03
 0.32286447563E+03 0.32286446960E+03 0.28065790387E+03 0.11411759635E+03 0.80127560146E+02
 0.53126924369E+02 0.33909296247E+02 0.21191782264E+02 0.13158184437E+02 0.82161382749E+01
 0.52050504815E+01 0.34347552633E+01 0.24059091766E+01 0.18589875114E+01 0.15947675998E+01
 0.14849149352E+01 0.14563281503E+01 0.14705886036E+01 0.15077732759E+01 0.15562876996E+01
 0.16077422134E+01 0.16552155957E+01 0.16931341951E+01 0.17174799756E+01 0.17258594584E+01
 0.17174799756E+01 0.16931341951E+01 0.16552155957E+01 0.16077422134E+01 0.15562876996E+01
 0.15077732759E+01 0.14705886036E+01 0.14563281503E+01 0.14849149352E+01 0.15947675998E+01
 0.18589875114E+01 0.24059091766E+01 0.34347552633E+01 0.52050504815E+01 0.82161386550E+01
 0.13158185812E+02 0.21191785741E+02 0.33909303209E+02 0.53126935890E+02 0.80127576093E+02
 0.11411761456E+03 0.15025988196E+03 0.17914992613E+03 0.19034898609E+03 0.17914991648E+03
 0.15025986568E+03 0.60630984409E+02 0.43035360690E+02 0.29153464466E+02 0.19162608722E+02
 0.12401759903E+02 0.80059329633E+01 0.52050504815E+01 0.34998322335E+01 0.24763360335E+01
 0.19152946088E+01 0.16368742800E+01 0.15187410784E+01 0.14878446551E+01 0.15042197482E+01
 0.15465738701E+01 0.16024837572E+01 0.16630412797E+01 0.17208153870E+01 0.17696150777E+01
 0.18047340699E+01 0.18230629753E+01 0.18230629753E+01 0.18047340699E+01 0.17696150777E+01
 0.17208153870E+01 0.16630412797E+01 0.16024837572E+01 0.15465738701E+01 0.15042197482E+01
 0.14878446551E+01 0.15187410784E+01 0.16368742800E+01 0.19152946088E+01 0.24763360335E+01
 0.34998322335E+01 0.52050504815E+01 0.80059333523E+01 0.12401761192E+02 0.19162611797E+02
 0.29153470231E+02 0.43035369565E+02 0.60630995716E+02 0.80127570984E+02 0.97668338663E+02
 0.10826952248E+03 0.10826951914E+03 0.97668329789E+02 0.80127559356E+02 0.32629911472E+02
 0.23492204972E+02 0.16298538595E+02 0.11049548029E+02 0.74153679472E+01 0.49834863367E+01
 0.34347552633E+01 0.24763360335E+01 0.19351779161E+01 0.16597561388E+01 0.15412659880E+01
 0.15115559661E+01 0.15317147206E+01 0.15802726042E+01 0.16444520210E+01 0.17150132079E+01
 0.17841061750E+01 0.18449668925E+01 0.18922201942E+01 0.19220659214E+01 0.19322616161E+01
 0.19220659214E+01 0.18922201942E+01 0.18449668925E+01 0.17841061750E+01 0.17150132079E+01
 0.16444520210E+01 0.15802726042E+01 0.15317147206E+01 0.15115559661E+01 0.15412659880E+01
 0.16597561388E+01 0.19351779161E+01 0.24763360335E+01 0.34347552633E+01 0.49834863367E+01
 0.74153682602E+01 0.11049549040E+02 0.16298540874E+02 0.23492209013E+02 0.32629917276E+02
 0.43035367065E+02 0.53126929530E+02 0.60633587562E+02 0.63429950139E+02 0.60633583870E+02
 0.53126923385E+02 0.43035360304E+02 0.17939695287E+02 0.13144404974E+02 0.93571955359E+01
 0.65530674984E+01 0.45756447397E+01 0.32504266940E+01 0.24059091766E+01 0.19152946088E+01
 0.16597561388E+01 0.15491722316E+01 0.15242877693E+01 0.15497263821E+01 0.16051506062E+01
 0.16780355882E+01 0.17590837770E+01 0.18401673278E+01 0.19140173902E+01 0.19746019004E+01
 0.20174246724E+01 0.20395563302E+01 0.20395563302E+01 0.20174246724E+01 0.19746019004E+01
 0.19140173902E+01 0.18401673278E+01 0.17590837770E+01 0.16780355882E+01 0.16051506062E+01
 0.15497263821E+01 0.15242877693E+01 0.15491722316E+01 0.16597561388E+01 0.19152946088E+01
 0.24059091766E+01 0.32504266940E+01 0.45756447397E+01 0.65530677000E+01 0.93571961829E+01
 0.13144406391E+02 0.17939697668E+02 0.23492207997E+02 0.29153467397E+02 0.33909298062E+02
 0.36655666531E+02 0.36655665545E+02 0.33909295451E+02 0.29153464028E+02 0.23492204815E+02
 0.10150944236E+02 0.75884467694E+01 0.55297713218E+01 0.40437376195E+01 0.29767258190E+01
 0.22768676278E+01 0.18589875114E+01 0.16368742800E+01 0.15412659880E+01 0.15242877693E+01
 0.15559963698E+01 0.16183620799E+01 0.16997456510E+01 0.17911207670E+01 0.18842757563E+01
 0.19715531426E+01 0.20463007294E+01 0.21033048454E+01 0.21389250457E+01 0.21510318521E+01
 0.21389250457E+01 0.21033048454E+01 0.20463007294E+01 0.19715531426E+01 0.18842757563E+01
 0.17911207670E+01 0.16997456510E+01 0.16183620799E+01 0.15559963698E+01 0.15242877693E+01
 0.15412659880E+01 0.16368742800E+01 0.18589875114E+01 0.22768676278E+01 0.29767258190E+01
 0.40437376195E+01 0.55297713218E+01 0.75884470935E+01 0.10150944941E+02 0.13144406069E+02
 0.16298539863E+02 0.19162609759E+02 0.21191782607E+02 0.21928859486E+02 0.21191781780E+02
 0.19162608407E+02 0.16298538438E+02 0.13144404924E+02 0.59481188786E+01 0.45548990714E+01
 0.34623687226E+01 0.26549418873E+01 0.21097031684E+01 0.17753981057E+01 0.15947675998E+01
 0.15187410784E+01 0.15115559661E+01 0.15497263821E+01 0.16183620799E+01 0.17072548152E+01
 0.18079860557E+01 0.19124922301E+01 0.20128994754E+01 0.21020301248E+01 0.21739560643E+01
 0.22242763951E+01 0.22501346716E+01 0.22501346716E+01 0.22242763951E+01 0.21739560643E+01
 0.21020301248E+01 0.20128994754E+01 0.19124922301E+01 0.18079860557E+01 0.17072548152E+01
 0.16183620799E+01 0.15497263821E+01 0.15115559661E+01 0.15187410784E+01 0.15947675998E+01
 0.17753981057E+01 0.21097031684E+01 0.26549418873E+01 0.34623687226E+01 0.45548990714E+01
 0.59481189921E+01 0.75884470264E+01 0.93571959213E+01 0.11049548432E+02 0.12401760146E+02
 0.13158184372E+02 0.13158184215E+02 0.12401759741E+02 0.11049547935E+02 0.93571954955E+01
 0.75884467590E+01 0.36547817798E+01 0.29019906411E+01 0.23279405540E+01 0.19284448564E+01
 0.16771383503E+01 0.15398548289E+01 0.14849149352E+01 0.14878446551E+01 0.15317147206E+01
 0.16051506062E+01 0.16997456510E+01 0.18079860557E+01 0.19222028108E+01 0.20345234799E+01
 0.21374103674E+01 0.22242910188E+01 0.22899764103E+01 0.23308126103E+01 0.23446586234E+01
 0.23308126103E+01 0.22899764103E+01 0.22242910188E+01 0.21374103674E+01 0.20345234799E+01
 0.19222028108E+01 0.18079860557E+01 0.16997456510E+01 0.16051506062E+01 0.15317147206E+01
 0.14878446551E+01 0.14849149352E+01 0.15398548289E+01 0.16771383503E+01 0.19284448564E+01
 0.23279405540E+01 0.29019906411E+01 0.36547817798E+01 0.45548990714E+01 0.55297713218E+01
 0.65530675887E+01 0.74153680288E+01 0.80059329850E+01 0.82161382054E+01 0.80059329065E+01
 0.74153679114E+01 0.65530674812E+01 0.55297713218E+01 0.45548990714E+01 0.24154095061E+01
 0.20312511256E+01 0.17552979811E+01 0.15773733905E+01 0.14798560995E+01 0.14445296264E+01
 0.14563281503E+01 0.15042197482E+01 0.15802726042E+01 0.16780355882E+01 0.17911207670E+01
 0.19124922301E+01 0.20345234799E+01 0.21495420649E+01 0.22504863841E+01 0.23314239556E+01
 0.23878508697E+01 0.24167950901E+01 0.24167950901E+01 0.23878508697E+01 0.23314239556E+01
 0.22504863841E+01 0.21495420649E+01 0.20345234799E+01 0.19124922301E+01 0.17911207670E+01
 0.16780355882E+01 0.15802726042E+01 0.15042197482E+01 0.14563281503E+01 0.14445296264E+01
 0.14798560995E+01 0.15773733905E+01 0.17552979811E+01 0.20312511256E+01 0.24154095061E+01
 0.29019906411E+01 0.34623687226E+01 0.40437376195E+01 0.45756447397E+01 0.49834863367E+01
 0.52050504815E+01 0.52050504815E+01 0.49834863367E+01 0.45756447397E+01 0.40437376195E+01
 0.34623687226E+01 0.29019906411E+01 0.17877250667E+01 0.16067769722E+01 0.14873119231E+01
 0.14222831182E+01 0.14028593522E+01 0.14210473360E+01 0.14705886036E+01 0.15465738701E+01
 0.16444520210E+01 0.17590837770E+01 0.18842757563E+01 0.20128994754E+01 0.21374103674E+01
 0.22504863841E+01 0.23455922868E+01 0.24173966083E+01 0.24620247697E+01 0.24771568367E+01
 0.24620247697E+01 0.24173966083E+01 0.23455922868E+01 0.22504863841E+01 0.21374103674E+01
 0.20128994754E+01 0.18842757563E+01 0.17590837770E+01 0.16444520210E+01 0.15465738701E+01
 0.14705886036E+01 0.14210473360E+01 0.14028593522E+01 0.14222831182E+01 0.14873119231E+01
 0.16067769722E+01 0.17877250667E+01 0.20312511256E+01 0.23279405540E+01 0.26549418873E+01
 0.29767258190E+01 0.32504266940E+01 0.34347552633E+01 0.34998322335E+01 0.34347552633E+01
 0.32504266940E+01 0.29767258190E+01 0.26549418873E+01 0.23279405540E+01 0.20312511256E+01
 0.14922602637E+01 0.14148180267E+01 0.13733555220E+01 0.13649139387E+01 0.13863015580E+01
 0.14347559497E+01 0.15077732759E+01 0.16024837572E+01 0.17150132079E+01 0.18401673278E+01
 0.19715531426E+01 0.21020301248E+01 0.22242910188E+01 0.23314239556E+01 0.24173966083E+01
 0.24774366809E+01 0.25082794415E+01 0.25082794415E+01 0.24774366809E+01 0.24173966083E+01
 0.23314239556E+01 0.22242910188E+01 0.21020301248E+01 0.19715531426E+01 0.18401673278E+01
 0.17150132079E+01 0.16024837572E+01 0.15077732759E+01 0.14347559497E+01 0.13863015580E+01
 0.13649139387E+01 0.13733555220E+01 0.14148180267E+01 0.14922602637E+01 0.16067769722E+01
 0.17552979811E+01 0.19284448564E+01 0.21097031684E+01 0.22768676278E+01 0.24059091766E+01
 0.24763360335E+01 0.24763360335E+01 0.24059091766E+01 0.22768676278E+01 0.21097031684E+01
 0.19284448564E+01 0.17552979811E+01 0.16067769722E+01 0.13643093402E+01 0.13375828319E+01
 0.13349537579E+01 0.13561601708E+01 0.14007504679E+01 0.14679606024E+01 0.15562876996E+01
 0.16630412797E+01 0.17841061750E+01 0.19140173902E+01 0.20463007294E+01 0.21739560643E+01
 0.22899764103E+01 0.23878508697E+01 0.24620247697E+01 0.25082794415E+01 0.25239933786E+01
 0.25082794415E+01 0.24620247697E+01 0.23878508697E+01 0.22899764103E+01 0.21739560643E+01
 0.20463007294E+01 0.19140173902E+01 0.17841061750E+01 0.16630412797E+01 0.15562876996E+01
 0.14679606024E+01 0.14007504679E+01 0.13561601708E+01 0.13349537579E+01 0.13375828319E+01
 0.13643093402E+01 0.14148180267E+01 0.14873119231E+01 0.15773733905E+01 0.16771383503E+01
 0.17753981057E+01 0.18589875114E+01 0.19152946088E+01 0.19351779161E+01 0.19152946088E+01
 0.18589875114E+01 0.17753981057E+01 0.16771383503E+01 0.15773733905E+01 0.14873119231E+01
 0.14148180267E+01 0.13179438179E+01 0.13163701714E+01 0.13341930248E+01 0.13723260458E+01
 0.14311442358E+01 0.15101701229E+01 0.16077422134E+01 0.17208153870E+01 0.18449668925E+01
 0.19746019004E+01 0.21033048454E+01 0.22242763951E+01 0.23308126103E+01 0.24167950901E+01
 0.24771568367E+01 0.25082794415E+01 0.25082794415E+01 0.24771568367E+01 0.24167950901E+01
 0.23308126103E+01 0.22242763951E+01 0.21033048454E+01 0.19746019004E+01 0.18449668925E+01
 0.17208153870E+01 0.16077422134E+01 0.15101701229E+01 0.14311442358E+01 0.13723260458E+01
 0.13341930248E+01 0.13163701714E+01 0.13179438179E+01 0.13375828319E+01 0.13733555220E+01
 0.14222831182E+01 0.14798560995E+01 0.15398548289E+01 0.15947675998E+01 0.16368742800E+01
 0.16597561388E+01 0.16597561388E+01 0.16368742800E+01 0.15947675998E+01 0.15398548289E+01
 0.14798560995E+01 0.14222831182E+01 0.13733555220E+01 0.13375828319E+01 0.13118188885E+01
 0.13234070332E+01 0.13527641878E+01 0.14009373169E+01 0.14681613023E+01 0.15536095075E+01
 0.16552155957E+01 0.17696150777E+01 0.18922201942E+01 0.20174246724E+01 0.21389250457E+01
 0.22501346716E+01 0.23446586234E+01 0.24167950901E+01 0.24620247697E+01 0.24774366809E+01
 0.24620247697E+01 0.24167950901E+01 0.23446586234E+01 0.22501346716E+01 0.21389250457E+01
 0.20174246724E+01 0.18922201942E+01 0.17696150777E+01 0.16552155957E+01 0.15536095075E+01
 0.14681613023E+01 0.14009373169E+01 0.13527641878E+01 0.13234070332E+01 0.13118188885E+01
 0.13163701714E+01 0.13349537579E+01 0.13649139387E+01 0.14028593522E+01 0.14445296264E+01
 0.14849149352E+01 0.15187410784E+01 0.15412659880E+01 0.15491722316E+01 0.15412659880E+01
 0.15187410784E+01 0.14849149352E+01 0.14445296264E+01 0.14028593522E+01 0.13649139387E+01
 0.13349537579E+01 0.13163701714E+01 0.13262859730E+01 0.13448120241E+01 0.13803999114E+01
 0.14337499047E+01 0.15046712085E+01 0.15919272398E+01 0.16931341951E+01 0.18047340699E+01
 0.19220659214E+01 0.20395563302E+01 0.21510318521E+01 0.22501346716E+01 0.23308126103E+01
 0.23878508697E+01 0.24173966083E+01 0.24173966083E+01 0.23878508697E+01 0.23308126103E+01
 0.22501346716E+01 0.21510318521E+01 0.20395563302E+01 0.19220659214E+01 0.18047340699E+01
 0.16931341951E+01 0.15919272398E+01 0.15046712085E+01 0.14337499047E+01 0.13803999114E+01
 0.13448120241E+01 0.13262859730E+01 0.13234070332E+01 0.13341930248E+01 0.13561601708E+01
 0.13863015580E+01 0.14210473360E+01 0.14563281503E+01 0.14878446551E+01 0.15115559661E+01
 0.15242877693E+01 0.15242877693E+01 0.15115559661E+01 0.14878446551E+01 0.14563281503E+01
 0.14210473360E+01 0.13863015580E+01 0.13561601708E+01 0.13341930248E+01 0.13234070332E+01
 0.13506747547E+01 0.13719919433E+01 0.14097702656E+01 0.14642813669E+01 0.15349444370E+01
 0.16202116969E+01 0.17174799756E+01 0.18230629753E+01 0.19322616161E+01 0.20395563302E+01
 0.21389250457E+01 0.22242763951E+01 0.22899764103E+01 0.23314239556E+01 0.23455922868E+01
 0.23314239556E+01 0.22899764103E+01 0.22242763951E+01 0.21389250457E+01 0.20395563302E+01
 0.19322616161E+01 0.18230629753E+01 0.17174799756E+01 0.16202116969E+01 0.15349444370E+01
 0.14642813669E+01 0.14097702656E+01 0.13719919433E+01 0.13506747547E+01 0.13448120241E+01
 0.13527641878E+01 0.13723260458E+01 0.14007504679E+01 0.14347559497E+01 0.14705886036E+01
 0.15042197482E+01 0.15317147206E+01 0.15497263821E+01 0.15559963698E+01 0.15497263821E+01
 0.15317147206E+01 0.15042197482E+01 0.14705886036E+01 0.14347559497E+01 0.14007504679E+01
 0.13723260458E+01 0.13527641878E+01 0.13448120241E+01 0.13775711972E+01 0.13983882108E+01
 0.14350555301E+01 0.14874836511E+01 0.15547859753E+01 0.16351712400E+01 0.17258594584E+01
 0.18230629753E+01 0.19220659214E+01 0.20174246724E+01 0.21033048454E+01 0.21739560643E+01
 0.22242910188E+01 0.22504863841E+01 0.22504863841E+01 0.22242910188E+01 0.21739560643E+01
 0.21033048454E+01 0.20174246724E+01 0.19220659214E+01 0.18230629753E+01 0.17258594584E+01
 0.16351712400E+01 0.15547859753E+01 0.14874836511E+01 0.14350555301E+01 0.13983882108E+01
 0.13775711972E+01 0.13719919433E+01 0.13803999114E+01 0.14009373169E+01 0.14311442358E+01
 0.14679606024E+01 0.15077732759E+01 0.15465738701E+01 0.15802726042E+01 0.16051506062E+01
 0.16183620799E+01 0.16183620799E+01 0.16051506062E+01 0.15802726042E+01 0.15465738701E+01
 0.15077732759E+01 0.14679606024E+01 0.14311442358E+01 0.14009373169E+01 0.13803999114E+01
 0.13719919433E+01 0.14011266216E+01 0.14188893316E+01 0.14519565355E+01 0.14999364574E+01
 0.15616777849E+01 0.16351712400E+01 0.17174799756E+01 0.18047340699E+01 0.18922201942E+01
 0.19746019004E+01 0.20463007294E+01 0.21020301248E+01 0.21374103674E+01 0.21495420649E+01
 0.21374103674E+01 0.21020301248E+01 0.20463007294E+01 0.19746019004E+01 0.18922201942E+01
 0.18047340699E+01 0.17174799756E+01 0.16351712400E+01 0.15616777849E+01 0.14999364574E+01
 0.14519565355E+01 0.14188893316E+01 0.14011266216E+01 0.13983882108E+01 0.14097702656E+01
 0.14337499047E+01 0.14681613023E+01 0.15101701229E+01 0.15562876996E+01 0.16024837572E+01
 0.16444520210E+01 0.16780355882E+01 0.16997456510E+01 0.17072548152E+01 0.16997456510E+01
 0.16780355882E+01 0.16444520210E+01 0.16024837572E+01 0.15562876996E+01 0.15101701229E+01
 0.14681613023E+01 0.14337499047E+01 0.14097702656E+01 0.13983882108E+01 0.14170079775E+01
 0.14300099392E+01 0.14578769953E+01 0.14999364574E+01 0.15547859753E+01 0.16202116969E+01
 0.16931341951E+01 0.17696150777E+01 0.18449668925E+01 0.19140173902E+01 0.19715531426E+01
 0.20128994754E+01 0.20345234799E+01 0.20345234799E+01 0.20128994754E+01 0.19715531426E+01
 0.19140173902E+01 0.18449668925E+01 0.17696150777E+01 0.16931341951E+01 0.16202116969E+01
 0.15547859753E+01 0.14999364574E+01 0.14578769953E+01 0.14300099392E+01 0.14170079775E+01
 0.14188893316E+01 0.14350555301E+01 0.14642813669E+01 0.15046712085E+01 0.15536095075E+01
 0.16077422134E+01 0.16630412797E+01 0.17150132079E+01 0.17590837770E+01 0.17911207670E+01
 0.18079860557E+01 0.18079860557E+01 0.17911207670E+01 0.17590837770E+01 0.17150132079E+01
 0.16630412797E+01 0.16077422134E+01 0.15536095075E+01 0.15046712085E+01 0.14642813669E+01
 0.14350555301E+01 0.14188893316E+01 0.14225917402E+01 0.14300099392E+01 0.14519565355E+01
 0.14874836511E+01 0.15349444370E+01 0.15919272398E+01 0.16552155957E+01 0.17208153870E+01
 0.17841061750E+01 0.18401673278E+01 0.18842757563E+01 0.19124922301E+01 0.19222028108E+01
 0.19124922301E+01 0.18842757563E+01 0.18401673278E+01 0.17841061750E+01 0.17208153870E+01
 0.16552155957E+01 0.15919272398E+01 0.15349444370E+01 0.14874836511E+01 0.14519565355E+01
 0.14300099392E+01 0.14225917402E+01 0.14300099392E+01 0.14519565355E+01 0.14874836511E+01
 0.15349444370E+01 0.15919272398E+01 0.16552155957E+01 0.17208153870E+01 0.17841061750E+01
 0.18401673278E+01 0.18842757563E+01 0.19124922301E+01 0.19222028108E+01 0.19124922301E+01
 0.18842757563E+01 0.18401673278E+01 0.17841061750E+01 0.17208153870E+01 0.16552155957E+01
 0.15919272398E+01 0.15349444370E+01 0.14874836511E+01 0.14519565355E+01 0.14300099392E+01
 0.14170079775E+01 0.14188893316E+01 0.14350555301E+01 0.14642813669E+01 0.15046712085E+01
 0.15536095075E+01 0.16077422134E+01 0.16630412797E+01 0.17150132079E+01 0.17590837770E+01
 0.17911207670E+01 0.18079860557E+01 0.18079860557E+01 0.17911207670E+01 0.17590837770E+01
 0.17150132079E+01 0.16630412797E+01 0.16077422134E+01 0.15536095075E+01 0.15046712085E+01
 0.14642813669E+01 0.14350555301E+01 0.14188893316E+01 0.14170079775E+01 0.14300099392E+01
 0.14578769953E+01 0.14999364574E+01 0.15547859753E+01 0.16202116969E+01 0.16931341951E+01
 0.17696150777E+01 0.18449668925E+01 0.19140173902E+01 0.19715531426E+01 0.20128994754E+01
 0.20345234799E+01 0.20345234799E+01 0.20128994754E+01 0.19715531426E+01 0.19140173902E+01
 0.18449668925E+01 0.17696150777E+01 0.16931341951E+01 0.16202116969E+01 0.15547859753E+01
 0.14999364574E+01 0.14578769953E+01 0.14300099392E+01 0.14011266216E+01 0.13983882108E+01
 0.14097702656E+01 0.14337499047E+01 0.14681613023E+01 0.15101701229E+01 0.15562876996E+01
 0.16024837572E+01 0.16444520210E+01 0.16780355882E+01 0.16997456510E+01 0.17072548152E+01
 0.16997456510E+01 0.16780355882E+01 0.16444520210E+01 0.16024837572E+01 0.15562876996E+01
 0.15101701229E+01 0.14681613023E+01 0.14337499047E+01 0.14097702656E+01 0.13983882108E+01
 0.14011266216E+01 0.14188893316E+01 0.14519565355E+01 0.14999364574E+01 0.15616777849E+01
 0.16351712400E+01 0.17174799756E+01 0.18047340699E+01 0.18922201942E+01 0.19746019004E+01
 0.20463007294E+01 0.21020301248E+01 0.21374103674E+01 0.21495420649E+01 0.21374103674E+01
 0.21020301248E+01 0.20463007294E+01 0.19746019004E+01 0.18922201942E+01 0.18047340699E+01
 0.17174799756E+01 0.16351712400E+01 0.15616777849E+01 0.14999364574E+01 0.14519565355E+01
 0.14188893316E+01 0.13775711972E+01 0.13719919433E+01 0.13803999114E+01 0.14009373169E+01
 0.14311442358E+01 0.14679606024E+01 0.15077732759E+01 0.15465738701E+01 0.15802726042E+01
 0.16051506062E+01 0.16183620799E+01 0.16183620799E+01 0.16051506062E+01 0.15802726042E+01
 0.15465738701E+01 0.15077732759E+01 0.14679606024E+01 0.14311442358E+01 0.14009373169E+01
 0.13803999114E+01 0.13719919433E+01 0.13775711972E+01 0.13983882108E+01 0.14350555301E+01
 0.14874836511E+01 0.15547859753E+01 0.16351712400E+01 0.17258594584E+01 0.18230629753E+01
 0.19220659214E+01 0.20174246724E+01 0.21033048454E+01 0.21739560643E+01 0.22242910188E+01
 0.22504863841E+01 0.22504863841E+01 0.22242910188E+01 0.21739560643E+01 0.21033048454E+01
 0.20174246724E+01 0.19220659214E+01 0.18230629753E+01 0.17258594584E+01 0.16351712400E+01
 0.15547859753E+01 0.14874836511E+01 0.14350555301E+01 0.13983882108E+01 0.13506747547E+01
 0.13448120241E+01 0.13527641878E+01 0.13723260458E+01 0.14007504679E+01 0.14347559497E+01
 0.14705886036E+01 0.15042197482E+01 0.15317147206E+01 0.15497263821E+01 0.15559963698E+01
 0.15497263821E+01 0.15317147206E+01 0.15042197482E+01 0.14705886036E+01 0.14347559497E+01
 0.14007504679E+01 0.13723260458E+01 0.13527641878E+01 0.13448120241E+01 0.13506747547E+01
 0.13719919433E+01 0.14097702656E+01 0.14642813669E+01 0.15349444370E+01 0.16202116969E+01
 0.17174799756E+01 0.18230629753E+01 0.19322616161E+01 0.20395563302E+01 0.21389250457E+01
 0.22242763951E+01 0.22899764103E+01 0.23314239556E+01 0.23455922868E+01 0.23314239556E+01
 0.22899764103E+01 0.22242763951E+01 0.21389250457E+01 0.20395563302E+01 0.19322616161E+01
 0.18230629753E+01 0.17174799756E+01 0.16202116969E+01 0.15349444370E+01 0.14642813669E+01
 0.14097702656E+01 0.13719919433E+01 0.13262859730E+01 0.13234070332E+01 0.13341930248E+01
 0.13561601708E+01 0.13863015580E+01 0.14210473360E+01 0.14563281503E+01 0.14878446551E+01
 0.15115559661E+01 0.15242877693E+01 0.15242877693E+01 0.15115559661E+01 0.14878446551E+01
 0.14563281503E+01 0.14210473360E+01 0.13863015580E+01 0.13561601708E+01 0.13341930248E+01
 0.13234070332E+01 0.13262859730E+01 0.13448120241E+01 0.13803999114E+01 0.14337499047E+01
 0.15046712085E+01 0.15919272398E+01 0.16931341951E+01 0.18047340699E+01 0.19220659214E+01
 0.20395563302E+01 0.21510318521E+01 0.22501346716E+01 0.23308126103E+01 0.23878508697E+01
 0.24173966083E+01 0.24173966083E+01 0.23878508697E+01 0.23308126103E+01 0.22501346716E+01
 0.21510318521E+01 0.20395563302E+01 0.19220659214E+01 0.18047340699E+01 0.16931341951E+01
 0.15919272398E+01 0.15046712085E+01 0.14337499047E+01 0.13803999114E+01 0.13448120241E+01
 0.13118188885E+01 0.13163701714E+01 0.13349537579E+01 0.13649139387E+01 0.14028593522E+01
 0.14445296264E+01 0.14849149352E+01 0.15187410784E+01 0.15412659880E+01 0.15491722316E+01
 0.15412659880E+01 0.15187410784E+01 0.14849149352E+01 0.14445296264E+01 0.14028593522E+01
 0.13649139387E+01 0.13349537579E+01 0.13163701714E+01 0.13118188885E+01 0.13234070332E+01
 0.13527641878E+01 0.14009373169E+01 0.14681613023E+01 0.15536095075E+01 0.16552155957E+01
 0.17696150777E+01 0.18922201942E+01 0.20174246724E+01 0.21389250457E+01 0.22501346716E+01
 0.23446586234E+01 0.24167950901E+01 0.24620247697E+01 0.24774366809E+01 0.24620247697E+01
 0.24167950901E+01 0.23446586234E+01 0.22501346716E+01 0.21389250457E+01 0.20174246724E+01
 0.18922201942E+01 0.17696150777E+01 0.16552155957E+01 0.15536095075E+01 0.14681613023E+01
 0.14009373169E+01 0.13527641878E+01 0.13234070332E+01 0.13179438179E+01 0.13375828319E+01
 0.13733555220E+01 0.14222831182E+01 0.14798560995E+01 0.15398548289E+01 0.15947675998E+01
 0.16368742800E+01 0.16597561388E+01 0.16597561388E+01 0.16368742800E+01 0.15947675998E+01
 0.15398548289E+01 0.14798560995E+01 0.14222831182E+01 0.13733555220E+01 0.13375828319E+01
 0.13179438179E+01 0.13163701714E+01 0.13341930248E+01 0.13723260458E+01 0.14311442358E+01
 0.15101701229E+01 0.16077422134E+01 0.17208153870E+01 0.18449668925E+01 0.19746019004E+01
 0.21033048454E+01 0.22242763951E+01 0.23308126103E+01 0.24167950901E+01 0.24771568367E+01
 0.25082794415E+01 0.25082794415E+01 0.24771568367E+01 0.24167950901E+01 0.23308126103E+01
 0.22242763951E+01 0.21033048454E+01 0.19746019004E+01 0.18449668925E+01 0.17208153870E+01
 0.16077422134E+01 0.15101701229E+01 0.14311442358E+01 0.13723260458E+01 0.13341930248E+01
 0.13163701714E+01 0.13643093402E+01 0.14148180267E+01 0.14873119231E+01 0.15773733905E+01
 0.16771383503E+01 0.17753981057E+01 0.18589875114E+01 0.19152946088E+01 0.19351779161E+01
 0.19152946088E+01 0.18589875114E+01 0.17753981057E+01 0.16771383503E+01 0.15773733905E+01
 0.14873119231E+01 0.14148180267E+01 0.13643093402E+01 0.13375828319E+01 0.13349537579E+01
 0.13561601708E+01 0.14007504679E+01 0.14679606024E+01 0.15562876996E+01 0.16630412797E+01
 0.17841061750E+01 0.19140173902E+01 0.20463007294E+01 0.21739560643E+01 0.22899764103E+01
 0.23878508697E+01 0.24620247697E+01 0.25082794415E+01 0.25239933786E+01 0.25082794415E+01
 0.24620247697E+01 0.23878508697E+01 0.22899764103E+01 0.21739560643E+01 0.20463007294E+01
 0.19140173902E+01 0.17841061750E+01 0.16630412797E+01 0.15562876996E+01 0.14679606024E+01
 0.14007504679E+01 0.13561601708E+01 0.13349537579E+01 0.13375828319E+01 0.14922602637E+01
 0.16067769722E+01 0.17552979811E+01 0.19284448564E+01 0.21097031684E+01 0.22768676278E+01
 0.24059091766E+01 0.24763360335E+01 0.24763360335E+01 0.24059091766E+01 0.22768676278E+01
 0.21097031684E+01 0.19284448564E+01 0.17552979811E+01 0.16067769722E+01 0.14922602637E+01
 0.14148180267E+01 0.13733555220E+01 0.13649139387E+01 0.13863015580E+01 0.14347559497E+01
 0.15077732759E+01 0.16024837572E+01 0.17150132079E+01 0.18401673278E+01 0.19715531426E+01
 0.21020301248E+01 0.22242910188E+01 0.23314239556E+01 0.24173966083E+01 0.24774366809E+01
 0.25082794415E+01 0.25082794415E+01 0.24774366809E+01 0.24173966083E+01 0.23314239556E+01
 0.22242910188E+01 0.21020301248E+01 0.19715531426E+01 0.18401673278E+01 0.17150132079E+01
 0.16024837572E+01 0.15077732759E+01 0.14347559497E+01 0.13863015580E+01 0.13649139387E+01