unknown system                          
   1.00000000000000     
     3.459762   -0.000000    1.997495
     1.153254    3.261896    1.997495
    -0.000000   -0.000000    3.994989
   Na   Cl
     1     1
Direct
  0.000000  0.000000  0.000000
  0.500000  0.500000  0.500000
 
   48   48   48
 0.26659282779E+06 0.81762353593E+04 0.49888385383E+03 0.26206321533E+03 0.16541057562E+03
 0.89343553967E+02 0.44752368538E+02 0.21675468175E+02 0.10346143251E+02 0.49126636662E+01
 0.23314427831E+01 0.11090217399E+01 0.52882150896E+00 0.25317945491E+00 0.12143259956E+00
 0.58488229275E-01 0.28211246769E-01 0.13718825988E-01 0.66561478197E-02 0.32899577728E-02
 0.15899030729E-02 0.82320195985E-03 0.39499470998E-03 0.26324688355E-03 0.16875679012E-03
 0.26324688296E-03 0.39499470981E-03 0.82320195988E-03 0.15899030730E-02 0.32899577730E-02
 0.66561478197E-02 0.13718825988E-01 0.28211246768E-01 0.58488229275E-01 0.12143259956E+00
 0.25317945491E+00 0.52882150896E+00 0.11090217399E+01 0.23314427831E+01 0.49126636662E+01
 0.10346143251E+02 0.21675468175E+02 0.44752368538E+02 0.89343553967E+02 0.16541057562E+03
 0.26206321533E+03 0.49888385383E+03 0.81762353593E+04 0.81762329997E+04 0.85140528083E+03
 0.29820176387E+03 0.20306150170E+03 0.11703747172E+03 0.60691081797E+02 0.29953063952E+02
 0.14449021748E+02 0.69013155620E+01 0.32860839649E+01 0.15652978791E+01 0.74724812807E+00
 0.35791042802E+00 0.17165500328E+00 0.82728132272E-01 0.39848860921E-01 0.19372536087E-01
 0.93821124833E-02 0.46261725492E-02 0.22458943725E-02 0.11335573224E-02 0.55748236029E-03
 0.30918628465E-03 0.19967142645E-03 0.20233522500E-03 0.31047666648E-03 0.55470354238E-03
 0.11346221317E-02 0.22440278955E-02 0.46286354741E-02 0.93809176265E-02 0.19373564176E-01
 0.39848340179E-01 0.82728287602E-01 0.17165587486E+00 0.35790848839E+00 0.74725158630E+00
 0.15652919764E+01 0.32860995626E+01 0.69013081712E+01 0.14449060690E+02 0.29953040615E+02
 0.60691157062E+02 0.11703749932E+03 0.20306152972E+03 0.29820188616E+03 0.85140541185E+03
 0.81762349177E+04 0.49888372287E+03 0.29820175256E+03 0.21697666328E+03 0.13433249995E+03
 0.73423588677E+02 0.37549775024E+02 0.18557287755E+02 0.90138675054E+01 0.43436835613E+01
 0.20869159800E+01 0.10029633450E+01 0.48250255974E+00 0.23261247498E+00 0.11233923902E+00
 0.54354561707E-01 0.26387861894E-01 0.12852689734E-01 0.62920204797E-02 0.30923775762E-02
 0.15254667332E-02 0.76515911054E-03 0.39249180791E-03 0.23455182179E-03 0.18240258901E-03
 0.23100544717E-03 0.39361843939E-03 0.76692509576E-03 0.15262792880E-02 0.30918058443E-02
 0.62908313299E-02 0.12852752987E-01 0.26387497505E-01 0.54354798834E-01 0.11233835948E+00
 0.23261378061E+00 0.48250104898E+00 0.10029595739E+01 0.20869169754E+01 0.43437113149E+01
 0.90138774842E+01 0.18557329812E+02 0.37549768289E+02 0.73423645715E+02 0.13433251002E+03
 0.21697667647E+03 0.29820179057E+03 0.49888382937E+03 0.85140510719E+03 0.26206319086E+03
 0.20306148320E+03 0.13433249204E+03 0.78337181856E+02 0.42184995867E+02 0.21675394428E+02
 0.10840054367E+02 0.53398880024E+01 0.26093522091E+01 0.12705949341E+01 0.61767948865E+00
 0.30052019828E+00 0.14609373080E+00 0.71187879799E-01 0.34673084429E-01 0.16985838082E-01
 0.83142105208E-02 0.41132890225E-02 0.20208249625E-02 0.10182771878E-02 0.50887324171E-03
 0.28243693518E-03 0.18209195311E-03 0.18465286378E-03 0.28140221393E-03 0.51122180624E-03
 0.10123711491E-02 0.20247179989E-02 0.41100693117E-02 0.83191333865E-02 0.16982355977E-01
 0.34676781365E-01 0.71185138725E-01 0.14609630225E+00 0.30051876589E+00 0.61768303199E+00
 0.12705994417E+01 0.26093440016E+01 0.53398792598E+01 0.10840037861E+02 0.21675420809E+02
 0.42185020287E+02 0.78337253575E+02 0.13433254970E+03 0.20306152680E+03 0.26206314297E+03
 0.29820177172E+03 0.29820185601E+03 0.16541054446E+03 0.11703745127E+03 0.73423579021E+02
 0.42184992916E+02 0.22848144543E+02 0.11912440445E+02 0.60628226511E+01 0.30403501739E+01
 0.15111430082E+01 0.74725873546E+00 0.36860069258E+00 0.18126137898E+00 0.89243724450E-01
 0.43777042693E-01 0.21636345076E-01 0.10600961407E-01 0.53170515808E-02 0.25738828409E-02
 0.13460438101E-02 0.61707717764E-03 0.38147844823E-03 0.16346803534E-03 0.20007938155E-03
 0.16551984331E-03 0.37921721317E-03 0.61845799622E-03 0.13474239692E-02 0.25737536794E-02
 0.53167593177E-02 0.10599295288E-01 0.21636732859E-01 0.43775608845E-01 0.89245204281E-01
 0.18125903781E+00 0.36859961407E+00 0.74725537569E+00 0.15111611963E+01 0.30403547778E+01
 0.60628436768E+01 0.11912425350E+02 0.22848107695E+02 0.42185006719E+02 0.73423507212E+02
 0.11703748252E+03 0.16541063770E+03 0.20306151061E+03 0.21697664746E+03 0.20306149503E+03
 0.89343528769E+02 0.60691066316E+02 0.37549767299E+02 0.21675391335E+02 0.11912439579E+02
 0.63286137733E+01 0.32861446406E+01 0.16803201727E+01 0.85063271377E+00 0.42764506894E+00
 0.21387531604E+00 0.10670560097E+00 0.53031370391E-01 0.26410716622E-01 0.13106998510E-01
 0.65633817321E-02 0.32547844901E-02 0.16485463652E-02 0.81638700216E-03 0.42973939370E-03
 0.22986330750E-03 0.15620054642E-03 0.15743677961E-03 0.22546624798E-03 0.43370123557E-03
 0.81423341611E-03 0.16490284485E-02 0.32524516478E-02 0.65664686702E-02 0.13105357297E-01
 0.26415002807E-01 0.53026786551E-01 0.10671225900E+00 0.21387123630E+00 0.42765550417E+00
 0.85061501783E+00 0.16803359686E+01 0.32861114307E+01 0.63286311176E+01 0.11912454911E+02
 0.21675398987E+02 0.37549882757E+02 0.60691122936E+02 0.89343551688E+02 0.11703747025E+03
 0.13433252440E+03 0.13433247681E+03 0.11703746659E+03 0.44752352272E+02 0.29953054073E+02
 0.18557282595E+02 0.10840052038E+02 0.60628217697E+01 0.32861444004E+01 0.17412805135E+01
 0.90823711736E+00 0.46809049637E+00 0.23922608744E+00 0.12148290057E+00 0.61373547784E-01
 0.30935007574E-01 0.15560455419E-01 0.78425283945E-02 0.39431554214E-02 0.19957771927E-02
 0.10033258958E-02 0.51851413795E-03 0.26771496076E-03 0.16514729739E-03 0.12629294046E-03
 0.16644561677E-03 0.26957133033E-03 0.51695850160E-03 0.10012977788E-02 0.20004298736E-02
 0.39396209142E-02 0.78467370870E-02 0.15552764107E-01 0.30942351393E-01 0.61363508853E-01
 0.12149112386E+00 0.23920987247E+00 0.46811591441E+00 0.90822190153E+00 0.17413219764E+01
 0.32861220551E+01 0.60628197140E+01 0.10840080993E+02 0.18557202288E+02 0.29953085015E+02
 0.44752407361E+02 0.60691115841E+02 0.73423491119E+02 0.78337230165E+02 0.73423619965E+02
 0.60691134486E+02 0.21675458704E+02 0.14449015969E+02 0.90138643704E+01 0.53398864783E+01
 0.30403495147E+01 0.16803199283E+01 0.90823705129E+00 0.48254099927E+00 0.25311889555E+00
 0.13143784541E+00 0.67708227170E-01 0.34703379089E-01 0.17713603169E-01 0.90382896217E-02
 0.45980049918E-02 0.23464499047E-02 0.11924427878E-02 0.61230700959E-03 0.31866872050E-03
 0.17698088879E-03 0.12328856880E-03 0.11728858140E-03 0.18192995156E-03 0.31081853914E-03
 0.62133596377E-03 0.11861026147E-02 0.23513361489E-02 0.45901213629E-02 0.90476804729E-02
 0.17705029236E-01 0.34715987999E-01 0.67697703838E-01 0.13145760286E+00 0.25309081652E+00
 0.48256480247E+00 0.90819935635E+00 0.16803457280E+01 0.30403675200E+01 0.53398359914E+01
 0.90139767890E+01 0.14449011149E+02 0.21675417613E+02 0.29953081345E+02 0.37549873929E+02
 0.42184992805E+02 0.42185003421E+02 0.37549751737E+02 0.29953027067E+02 0.10346138022E+02
 0.69013123403E+01 0.43436817607E+01 0.26093512855E+01 0.15111425754E+01 0.85063252974E+00
 0.46809042887E+00 0.25311887731E+00 0.13493956336E+00 0.71160799386E-01 0.37196641247E-01
 0.19337816584E-01 0.10005590706E-01 0.51722797716E-02 0.26610386017E-02 0.13738809259E-02
 0.70494084456E-03 0.36937647291E-03 0.19679749296E-03 0.12013896271E-03 0.95948376048E-04
 0.11969706306E-03 0.19810311999E-03 0.36907618627E-03 0.70571880848E-03 0.13686821197E-02
 0.26696768443E-02 0.51643258467E-02 0.10015416981E-01 0.19323268516E-01 0.37208336769E-01
 0.71139201670E-01 0.13496812435E+00 0.25309468769E+00 0.46812731803E+00 0.85062512924E+00
 0.15111097809E+01 0.26094348649E+01 0.43435738819E+01 0.69013659825E+01 0.10346214644E+02
 0.14449009343E+02 0.18557197773E+02 0.21675391448E+02 0.22848097825E+02 0.21675410177E+02
 0.18557320138E+02 0.14449053104E+02 0.49126608632E+01 0.32860822174E+01 0.20869149772E+01
 0.12705944000E+01 0.74725847001E+00 0.42764494686E+00 0.23922603586E+00 0.13143782655E+00
 0.71160794244E-01 0.38069456466E-01 0.20201710580E-01 0.10645279685E-01 0.55941360838E-02
 0.29166823991E-02 0.15288428198E-02 0.78772187891E-03 0.42033687818E-03 0.21378056879E-03
 0.13164275234E-03 0.79376667107E-04 0.94873715067E-04 0.11671094621E-03 0.22987382196E-03
 0.40175526645E-03 0.80699068474E-03 0.15124182308E-02 0.29321523050E-02 0.55746640722E-02
 0.10666017028E-01 0.20185269336E-01 0.38096136242E-01 0.71131085007E-01 0.13146128015E+00
 0.23919763546E+00 0.42764059189E+00 0.74732099240E+00 0.12704973302E+01 0.20870593820E+01
 0.32860411938E+01 0.49125662782E+01 0.69013651131E+01 0.90139745598E+01 0.10840077112E+02
 0.11912449525E+02 0.11912419098E+02 0.10840031650E+02 0.90138721199E+01 0.69013040802E+01
 0.23314413081E+01 0.15652969496E+01 0.10029628009E+01 0.61767918895E+00 0.36860053746E+00
 0.21387524022E+00 0.12148286606E+00 0.67708212693E-01 0.37196635968E-01 0.20201709164E-01
 0.10877181809E-01 0.58119154572E-02 0.30901658705E-02 0.16338758278E-02 0.86317594628E-03
 0.45311765703E-03 0.24279715025E-03 0.13166008857E-03 0.83760528331E-04 0.65526871086E-04
 0.82556020804E-04 0.13149538768E-03 0.24203169250E-03 0.45624089695E-03 0.86024340504E-03
 0.16325402143E-02 0.30937200214E-02 0.58116456588E-02 0.10874651521E-01 0.20195620668E-01
 0.37200416866E-01 0.67713796835E-01 0.12147454756E+00 0.21392103208E+00 0.36849152389E+00
 0.61781814407E+00 0.10028126828E+01 0.15653028330E+01 0.23315991914E+01 0.32860407789E+01
 0.43435728015E+01 0.53398340480E+01 0.60628168930E+01 0.63286276433E+01 0.60628399745E+01
 0.53398757923E+01 0.43437084340E+01 0.32860974001E+01 0.11090209713E+01 0.74724763815E+00
 0.48250226800E+00 0.30052003318E+00 0.18126129052E+00 0.10670555602E+00 0.61373526030E-01
 0.34703369250E-01 0.19337812460E-01 0.10645278166E-01 0.58119150483E-02 0.31456021339E-02
 0.16961567261E-02 0.90461993402E-03 0.48562506367E-03 0.25737485834E-03 0.14213737630E-03
 0.80545728244E-04 0.58371253304E-04 0.56979948119E-04 0.83856853462E-04 0.13992675842E-03
 0.26055455445E-03 0.47974205939E-03 0.91056792898E-03 0.16944802595E-02 0.31452245617E-02
 0.58115681746E-02 0.10650648418E-01 0.19336590525E-01 0.34697256864E-01 0.61385045441E-01
 0.10666215628E+00 0.18135866454E+00 0.30042251722E+00 0.48256350049E+00 0.74735632853E+00
 0.11088002945E+01 0.15653026357E+01 0.20870588610E+01 0.26094339079E+01 0.30403660822E+01
 0.32861201986E+01 0.32861093338E+01 0.30403526808E+01 0.26093421209E+01 0.20869154517E+01
 0.15652908497E+01 0.52882111092E+00 0.35791017233E+00 0.23261231943E+00 0.14609364143E+00
 0.89243675318E-01 0.53031344520E-01 0.30934994653E-01 0.17713596972E-01 0.10005587924E-01
 0.55941349216E-02 0.30901654412E-02 0.16961566050E-02 0.91927987671E-03 0.50182049580E-03
 0.26781385693E-03 0.14915069181E-03 0.81388438084E-04 0.54972145769E-04 0.42466280414E-04
 0.54337990245E-04 0.80372280231E-04 0.14927306855E-03 0.26687583897E-03 0.50506343590E-03
 0.91663266658E-03 0.16938759016E-02 0.30910864163E-02 0.55921816303E-02 0.10007222167E-01
 0.17717515568E-01 0.30924504441E-01 0.53065448314E-01 0.89166761089E-01 0.14614868007E+00
 0.23260745808E+00 0.35778241336E+00 0.52896574969E+00 0.74735623472E+00 0.10028124336E+01
 0.12704968627E+01 0.15111090593E+01 0.16803447604E+01 0.17413208341E+01 0.16803347568E+01
 0.15111600421E+01 0.12705984402E+01 0.10029587805E+01 0.74725100248E+00 0.25317924874E+00
 0.17165487016E+00 0.11233915747E+00 0.71187831707E-01 0.43777015647E-01 0.26410702062E-01
 0.15560447802E-01 0.90382858359E-02 0.51722779464E-02 0.29166815710E-02 0.16338754846E-02
 0.90461980963E-03 0.50182045930E-03 0.27185840896E-03 0.15269120467E-03 0.82916573057E-04
 0.52489896601E-04 0.34897018688E-04 0.38012265339E-04 0.49596780303E-04 0.87354583159E-04
 0.14860759445E-03 0.27744716384E-03 0.49342705467E-03 0.91230745635E-03 0.16355577379E-02
 0.29199165116E-02 0.51643327229E-02 0.90360593551E-02 0.15569358771E-01 0.26386685578E-01
 0.43839720506E-01 0.71156143571E-01 0.11233185890E+00 0.17175078171E+00 0.25311235140E+00
 0.35778236863E+00 0.48256338062E+00 0.61781791683E+00 0.74732063338E+00 0.85062463384E+00
 0.90819874718E+00 0.90822122627E+00 0.85061433814E+00 0.74725475107E+00 0.61768250507E+00
 0.48250063753E+00 0.35790818802E+00 0.12143249393E+00 0.82728063275E-01 0.54354518638E-01
 0.34673058992E-01 0.21636330541E-01 0.13106990462E-01 0.78425241581E-02 0.45980027966E-02
 0.26610375249E-02 0.15288423072E-02 0.86317570790E-03 0.48562495873E-03 0.26781381790E-03
 0.15269119285E-03 0.83292489334E-04 0.51772957795E-04 0.31964849399E-04 0.30191005890E-04
 0.32346327899E-04 0.51467978361E-04 0.82387149130E-04 0.15310995733E-03 0.26612847737E-03
 0.49010894500E-03 0.85574929501E-03 0.15217147633E-02 0.26690276547E-02 0.46098955849E-02
 0.78322193570E-02 0.13125187942E-01 0.21578811870E-01 0.34695681076E-01 0.54358209987E-01
 0.82661005383E-01 0.12146853969E+00 0.17175076031E+00 0.23260740044E+00 0.30042240674E+00
 0.36849134639E+00 0.42764034100E+00 0.46812699956E+00 0.48256443565E+00 0.46811552855E+00
 0.42765513143E+00 0.36859928155E+00 0.30051849021E+00 0.23261356729E+00 0.17165572033E+00
 0.58488174630E-01 0.39848825329E-01 0.26387839739E-01 0.16985824551E-01 0.10600953498E-01
 0.65633772937E-02 0.39431529447E-02 0.23464485988E-02 0.13738802374E-02 0.78772153495E-03
 0.45311749762E-03 0.25737478513E-03 0.14915065764E-03 0.82916557620E-04 0.51772951493E-04
 0.31154875544E-04 0.25931152092E-04 0.23311654403E-04 0.33071470564E-04 0.49284766700E-04
 0.87093020312E-04 0.14402687142E-03 0.26216188254E-03 0.44584732327E-03 0.79533440683E-03
 0.13668528070E-02 0.23307179834E-02 0.39459731836E-02 0.65563514378E-02 0.10647758088E-01
 0.16975080541E-01 0.26385973595E-01 0.39902088127E-01 0.58461104795E-01 0.82660995123E-01
 0.11233183113E+00 0.14614862638E+00 0.18135857704E+00 0.21392090581E+00 0.23919747073E+00
 0.25309449153E+00 0.25309060201E+00 0.23920965604E+00 0.21387103399E+00 0.18125886185E+00
 0.14609615929E+00 0.11233825023E+00 0.82728208350E-01 0.28211219102E-01 0.19372517715E-01
 0.12852677955E-01 0.83142034719E-02 0.53170474488E-02 0.32547821058E-02 0.19957759101E-02
 0.11924420866E-02 0.70494048187E-03 0.42033669087E-03 0.24279704467E-03 0.14213731871E-03
 0.81388405258E-04 0.52489878047E-04 0.31964837703E-04 0.25931146189E-04 0.21412691476E-04
 0.26153185338E-04 0.33106509865E-04 0.51317884514E-04 0.80770742574E-04 0.14693638061E-03
 0.24407687659E-03 0.43476814425E-03 0.71596967800E-03 0.11914670217E-02 0.19821778402E-02
 0.32647166653E-02 0.52862436227E-02 0.83194081807E-02 0.12842933106E-01 0.19334947096E-01
 0.28226274210E-01 0.39902083192E-01 0.54358196589E-01 0.71156117468E-01 0.89166718022E-01
 0.10666209304E+00 0.12147446322E+00 0.13146117700E+00 0.13496800790E+00 0.13145748097E+00
 0.12149100514E+00 0.10671215096E+00 0.89245112053E-01 0.71185064449E-01 0.54354742316E-01
 0.39848299651E-01 0.13718811535E-01 0.93821030556E-02 0.62920145965E-02 0.41132852570E-02
 0.25738805421E-02 0.16485450332E-02 0.10033250901E-02 0.61230656428E-03 0.36937621437E-03
 0.21378042570E-03 0.13166001409E-03 0.80545682820E-04 0.54972112680E-04 0.34896992465E-04
 0.30190986732E-04 0.23311638349E-04 0.26153176249E-04 0.26507681161E-04 0.37334661840E-04
 0.52643971641E-04 0.91482108116E-04 0.13328295694E-03 0.23386594508E-03 0.36749823651E-03
 0.63849795431E-03 0.10364983994E-02 0.16231911628E-02 0.25792409684E-02 0.41179052300E-02
 0.62986344409E-02 0.94134145087E-02 0.13712032476E-01 0.19334944722E-01 0.26385967129E-01
 0.34695668384E-01 0.43839699345E-01 0.53065416790E-01 0.61385002594E-01 0.67713743149E-01
 0.71131022583E-01 0.71139134098E-01 0.67697635524E-01 0.61363444171E-01 0.53026729049E-01
 0.43775560669E-01 0.34676743302E-01 0.26387468916E-01 0.19373543431E-01 0.66561406556E-02
 0.46261676493E-02 0.30923742874E-02 0.20208230200E-02 0.13460426729E-02 0.81638631985E-03
 0.51851378293E-03 0.31866850974E-03 0.19679737547E-03 0.13164267288E-03 0.83760460981E-04
 0.58371197449E-04 0.42466235090E-04 0.38012224793E-04 0.32346292596E-04 0.33071441284E-04
 0.33106487150E-04 0.37334647463E-04 0.46194577796E-04 0.63017427656E-04 0.74199978958E-04
 0.11865489862E-03 0.17661348297E-03 0.33279404232E-03 0.54404507760E-03 0.83567912407E-03
 0.12954203429E-02 0.20174609844E-02 0.31290289613E-02 0.46002273123E-02 0.66572541690E-02
 0.94134133567E-02 0.12842929957E-01 0.16975074352E-01 0.21578801483E-01 0.26386669908E-01
 0.30924482786E-01 0.34697229160E-01 0.37200383867E-01 0.38096099551E-01 0.37208298543E-01
 0.34715950575E-01 0.30942316872E-01 0.26414972670E-01 0.21636707908E-01 0.16982336207E-01
 0.12852738043E-01 0.93809070448E-02 0.32899538565E-02 0.22458918632E-02 0.15254652316E-02
 0.10182761317E-02 0.61707647352E-03 0.42973896335E-03 0.26771465244E-03 0.17698069269E-03
 0.12013882352E-03 0.79376563040E-04 0.65526795165E-04 0.56979876031E-04 0.54337920550E-04
 0.49596711922E-04 0.51467917091E-04 0.49284709386E-04 0.51317836318E-04 0.52643936240E-04
 0.63017404219E-04 0.56094979123E-04 0.75019201119E-04 0.85587736721E-04 0.17322761306E-03
 0.26285032696E-03 0.44518692037E-03 0.71297522849E-03 0.10021703462E-02 0.14792666845E-02
 0.22687754797E-02 0.32432066371E-02 0.46002267596E-02 0.62986329341E-02 0.83194051766E-02
 0.10647752986E-01 0.13125180146E-01 0.15569347867E-01 0.17717501372E-01 0.19336573261E-01
 0.20195600978E-01 0.20185248182E-01 0.19323247094E-01 0.17705008742E-01 0.15552745545E-01
 0.13105341378E-01 0.10599282292E-01 0.83191233666E-02 0.62908239422E-02 0.46286300194E-02
 0.15899012652E-02 0.11335559895E-02 0.76515810317E-03 0.50887267997E-03 0.38147813758E-03
 0.22986309628E-03 0.16514718821E-03 0.12328846932E-03 0.95948284310E-04 0.94873612604E-04
 0.82555901016E-04 0.83856729579E-04 0.80372159493E-04 0.87354464139E-04 0.82387040151E-04
 0.87092916625E-04 0.80770660032E-04 0.91482031930E-04 0.74199917105E-04 0.75019166379E-04
 0.57141877427E-04 0.10598834717E-03 0.12476996114E-03 0.24509391098E-03 0.42156481032E-03
 0.51638335711E-03 0.68284423375E-03 0.11171988401E-02 0.16796014126E-02 0.22687751987E-02
 0.31290282020E-02 0.41179037425E-02 0.52862410855E-02 0.65563475913E-02 0.78322138743E-02
 0.90360521018E-02 0.10007213181E-01 0.10650637939E-01 0.10874639990E-01 0.10666005068E-01
 0.10015405234E-01 0.90476695292E-02 0.78467273929E-02 0.65664604424E-02 0.53167526452E-02
 0.41100640215E-02 0.30918017921E-02 0.22440251089E-02 0.82320080645E-03 0.55748167133E-03
 0.39249146059E-03 0.28243660731E-03 0.16346773584E-03 0.15620031937E-03 0.12629270335E-03
 0.11728837391E-03 0.11969685682E-03 0.11671074486E-03 0.13149518741E-03 0.13992655342E-03
 0.14927285347E-03 0.14860738868E-03 0.15310975925E-03 0.14402669584E-03 0.14693623140E-03
 0.13328281678E-03 0.11865478141E-03 0.85587664035E-04 0.10598831266E-03 0.88560742867E-04
 0.15659360097E-03 0.27434494319E-03 0.28186114454E-03 0.36347090867E-03 0.55949632429E-03
 0.88075312397E-03 0.11171987115E-02 0.14792662951E-02 0.20174602491E-02 0.25792396984E-02
 0.32647147005E-02 0.39459703939E-02 0.46098918933E-02 0.51643280685E-02 0.55921760921E-02
 0.58115619595E-02 0.58116390329E-02 0.55746573488E-02 0.51643193443E-02 0.45901153817E-02
 0.39396156469E-02 0.32524472547E-02 0.25737501466E-02 0.20247153708E-02 0.15262774305E-02
 0.11346206741E-02 0.39499428716E-03 0.30918587520E-03 0.23455138241E-03 0.18209169543E-03
 0.20007921232E-03 0.15743659678E-03 0.16644544228E-03 0.18192972603E-03 0.19810284883E-03
 0.22987350159E-03 0.24203132674E-03 0.26055417701E-03 0.26687546061E-03 0.27744680403E-03
 0.26612813583E-03 0.26216158995E-03 0.24407662709E-03 0.23386571364E-03 0.17661329548E-03
 0.17322748714E-03 0.12476987242E-03 0.15659356998E-03 0.22596007071E-03 0.19027870428E-03
 0.24562474755E-03 0.30533551228E-03 0.41530411909E-03 0.55949626397E-03 0.68284405728E-03
 0.10021699971E-02 0.12954197700E-02 0.16231902197E-02 0.19821764752E-02 0.23307160685E-02
 0.26690252408E-02 0.29199136044E-02 0.30910830799E-02 0.31452209239E-02 0.30937162453E-02
 0.29321485968E-02 0.26696733680E-02 0.23513330419E-02 0.20004272181E-02 0.16490262319E-02
 0.13474222032E-02 0.10123697001E-02 0.76692390210E-03 0.55470278207E-03 0.26324641615E-03
 0.19967114756E-03 0.18240246454E-03 0.18465261736E-03 0.16551949310E-03 0.22546585611E-03
 0.26957084747E-03 0.31081800753E-03 0.36907560111E-03 0.40175463776E-03 0.45624024681E-03
 0.47974139100E-03 0.50506277330E-03 0.49342642966E-03 0.49010837216E-03 0.44584683941E-03
 0.43476774757E-03 0.36749787822E-03 0.33279377667E-03 0.26285012202E-03 0.24509379902E-03
 0.27434487944E-03 0.19027867853E-03 0.21554692967E-03 0.20498775802E-03 0.18229559100E-03
 0.30533547931E-03 0.36347084841E-03 0.51638318953E-03 0.71297496461E-03 0.83567866115E-03
 0.10364977296E-02 0.11914661040E-02 0.13668515666E-02 0.15217132282E-02 0.16355559635E-02
 0.16938739261E-02 0.16944781699E-02 0.16325381007E-02 0.15124161626E-02 0.13686801822E-02
 0.11861008700E-02 0.10012962601E-02 0.81423217757E-03 0.61845699832E-03 0.51122110923E-03
 0.39361801803E-03 0.31047623361E-03 0.16875664494E-03 0.20233493654E-03 0.23100497660E-03
 0.28140176970E-03 0.37921675584E-03 0.43370065096E-03 0.51695781088E-03 0.62133511685E-03
 0.70571781407E-03 0.80698957557E-03 0.86024221596E-03 0.91056673453E-03 0.91663152136E-03
 0.91230639760E-03 0.85574834247E-03 0.79533363884E-03 0.71596906159E-03 0.63849747081E-03
 0.54404470444E-03 0.44518667043E-03 0.42156467923E-03 0.28186105226E-03 0.24562473448E-03
 0.20498774165E-03 0.11480154353E-03 0.20498774074E-03 0.24562473436E-03 0.28186105200E-03
 0.42156467917E-03 0.44518667043E-03 0.54404470444E-03 0.63849747086E-03 0.71596906157E-03
 0.79533363882E-03 0.85574834245E-03 0.91230639763E-03 0.91663152135E-03 0.91056673449E-03
 0.86024221596E-03 0.80698957561E-03 0.70571781356E-03 0.62133511678E-03 0.51695781087E-03
 0.43370065094E-03 0.37921675592E-03 0.28140176969E-03 0.23100497657E-03 0.20233493652E-03
 0.26324641614E-03 0.31047623371E-03 0.39361801800E-03 0.51122110924E-03 0.61845699828E-03
 0.81423217756E-03 0.10012962601E-02 0.11861008701E-02 0.13686801843E-02 0.15124161626E-02
 0.16325381007E-02 0.16944781699E-02 0.16938739261E-02 0.16355559635E-02 0.15217132282E-02
 0.13668515667E-02 0.11914661040E-02 0.10364977296E-02 0.83567866115E-03 0.71297496461E-03
 0.51638318958E-03 0.36347084847E-03 0.30533547999E-03 0.18229559100E-03 0.20498775939E-03
 0.21554692933E-03 0.19027867876E-03 0.27434487920E-03 0.24509379906E-03 0.26285012200E-03
 0.33279377668E-03 0.36749787826E-03 0.43476774756E-03 0.44584683942E-03 0.49010837216E-03
 0.49342642968E-03 0.50506277329E-03 0.47974139097E-03 0.45624024682E-03 0.40175463783E-03
 0.36907559742E-03 0.31081800745E-03 0.26957084746E-03 0.22546585608E-03 0.16551949319E-03
 0.18465261734E-03 0.18240246455E-03 0.19967114753E-03 0.39499428717E-03 0.55470278217E-03
 0.76692390206E-03 0.10123697001E-02 0.13474222032E-02 0.16490262319E-02 0.20004272181E-02
 0.23513330420E-02 0.26696733688E-02 0.29321485968E-02 0.30937162453E-02 0.31452209239E-02
 0.30910830799E-02 0.29199136044E-02 0.26690252408E-02 0.23307160685E-02 0.19821764752E-02
 0.16231902196E-02 0.12954197701E-02 0.10021699972E-02 0.68284405722E-03 0.55949626392E-03
 0.41530411852E-03 0.30533551285E-03 0.24562474823E-03 0.19027870383E-03 0.22596007105E-03
 0.15659356996E-03 0.12476987244E-03 0.17322748712E-03 0.17661329549E-03 0.23386571364E-03
 0.24407662708E-03 0.26216158996E-03 0.26612813584E-03 0.27744680405E-03 0.26687546059E-03
 0.26055417700E-03 0.24203132673E-03 0.22987350165E-03 0.19810284749E-03 0.18192972597E-03
 0.16644544229E-03 0.15743659675E-03 0.20007921239E-03 0.18209169542E-03 0.23455138236E-03
 0.30918587501E-03 0.82320080645E-03 0.11346206743E-02 0.15262774305E-02 0.20247153708E-02
 0.25737501466E-02 0.32524472547E-02 0.39396156469E-02 0.45901153817E-02 0.51643193473E-02
 0.55746573489E-02 0.58116390330E-02 0.58115619594E-02 0.55921760922E-02 0.51643280685E-02
 0.46098918933E-02 0.39459703939E-02 0.32647147004E-02 0.25792396984E-02 0.20174602491E-02
 0.14792662951E-02 0.11171987114E-02 0.88075312402E-03 0.55949632423E-03 0.36347090844E-03
 0.28186114409E-03 0.27434494275E-03 0.15659360108E-03 0.88560742874E-04 0.10598831267E-03
 0.85587664052E-04 0.11865478141E-03 0.13328281680E-03 0.14693623141E-03 0.14402669584E-03
 0.15310975926E-03 0.14860738872E-03 0.14927285345E-03 0.13992655343E-03 0.13149518737E-03
 0.11671074490E-03 0.11969685427E-03 0.11728837388E-03 0.12629270335E-03 0.15620031936E-03
 0.16346773589E-03 0.28243660729E-03 0.39249146052E-03 0.55748167116E-03 0.15899012652E-02
 0.22440251090E-02 0.30918017921E-02 0.41100640215E-02 0.53167526452E-02 0.65664604424E-02
 0.78467273928E-02 0.90476695292E-02 0.10015405233E-01 0.10666005068E-01 0.10874639990E-01
 0.10650637939E-01 0.10007213181E-01 0.90360521018E-02 0.78322138743E-02 0.65563475913E-02
 0.52862410855E-02 0.41179037425E-02 0.31290282020E-02 0.22687751986E-02 0.16796014126E-02
 0.11171988401E-02 0.68284423369E-03 0.51638335695E-03 0.42156481038E-03 0.24509391097E-03
 0.12476996117E-03 0.10598834717E-03 0.57141877444E-04 0.75019166437E-04 0.74199917103E-04
 0.91482031947E-04 0.80770660032E-04 0.87092916622E-04 0.82387040186E-04 0.87354464173E-04
 0.80372159479E-04 0.83856729594E-04 0.82555900969E-04 0.94873612656E-04 0.95948285566E-04
 0.12328846932E-03 0.16514718820E-03 0.22986309633E-03 0.38147813761E-03 0.50887267997E-03
 0.76515810306E-03 0.11335559893E-02 0.32899538566E-02 0.46286300196E-02 0.62908239422E-02
 0.83191233666E-02 0.10599282292E-01 0.13105341378E-01 0.15552745545E-01 0.17705008742E-01
 0.19323247096E-01 0.20185248182E-01 0.20195600978E-01 0.19336573261E-01 0.17717501372E-01
 0.15569347867E-01 0.13125180146E-01 0.10647752986E-01 0.83194051766E-02 0.62986329341E-02
 0.46002267596E-02 0.32432066371E-02 0.22687754797E-02 0.14792666846E-02 0.10021703463E-02
 0.71297522835E-03 0.44518691999E-03 0.26285032700E-03 0.17322761321E-03 0.85587736756E-04
 0.75019201171E-04 0.56094979152E-04 0.63017404220E-04 0.52643936276E-04 0.51317836327E-04
 0.49284709390E-04 0.51467917118E-04 0.49596711961E-04 0.54337920539E-04 0.56979876034E-04
 0.65526795134E-04 0.79376563056E-04 0.12013882154E-03 0.17698069267E-03 0.26771465240E-03
 0.42973896337E-03 0.61707647354E-03 0.10182761317E-02 0.15254652315E-02 0.22458918631E-02
 0.66561406556E-02 0.93809070449E-02 0.12852738043E-01 0.16982336207E-01 0.21636707908E-01
 0.26414972670E-01 0.30942316872E-01 0.34715950575E-01 0.37208298544E-01 0.38096099551E-01
 0.37200383868E-01 0.34697229160E-01 0.30924482786E-01 0.26386669908E-01 0.21578801483E-01
 0.16975074352E-01 0.12842929957E-01 0.94134133567E-02 0.66572541690E-02 0.46002273123E-02
 0.31290289612E-02 0.20174609844E-02 0.12954203429E-02 0.83567912411E-03 0.54404507930E-03
 0.33279404229E-03 0.17661348302E-03 0.11865489860E-03 0.74199979057E-04 0.63017427670E-04
 0.46194577802E-04 0.37334647503E-04 0.33106487171E-04 0.33071441270E-04 0.32346292599E-04
 0.38012224809E-04 0.42466235085E-04 0.58371197467E-04 0.83760460946E-04 0.13164267287E-03
 0.19679737223E-03 0.31866850977E-03 0.51851378290E-03 0.81638631988E-03 0.13460426729E-02
 0.20208230200E-02 0.30923742872E-02 0.46261676490E-02 0.13718811535E-01 0.19373543431E-01
 0.26387468916E-01 0.34676743302E-01 0.43775560669E-01 0.53026729049E-01 0.61363444171E-01
 0.67697635524E-01 0.71139134095E-01 0.71131022583E-01 0.67713743149E-01 0.61385002594E-01
 0.53065416790E-01 0.43839699345E-01 0.34695668384E-01 0.26385967129E-01 0.19334944722E-01
 0.13712032476E-01 0.94134145087E-02 0.62986344409E-02 0.41179052300E-02 0.25792409684E-02
 0.16231911628E-02 0.10364983993E-02 0.63849795444E-03 0.36749823664E-03 0.23386594522E-03
 0.13328295689E-03 0.91482108213E-04 0.52643971644E-04 0.37334661840E-04 0.26507681164E-04
 0.26153176265E-04 0.23311638323E-04 0.30190986696E-04 0.34896992466E-04 0.54972112681E-04
 0.80545682841E-04 0.13166001409E-03 0.21378042568E-03 0.36937621725E-03 0.61230656436E-03
 0.10033250901E-02 0.16485450332E-02 0.25738805421E-02 0.41132852570E-02 0.62920145965E-02
 0.93821030555E-02 0.28211219102E-01 0.39848299652E-01 0.54354742316E-01 0.71185064449E-01
 0.89245112053E-01 0.10671215096E+00 0.12149100514E+00 0.13145748097E+00 0.13496800790E+00
 0.13146117700E+00 0.12147446322E+00 0.10666209304E+00 0.89166718022E-01 0.71156117468E-01
 0.54358196589E-01 0.39902083192E-01 0.28226274210E-01 0.19334947096E-01 0.12842933106E-01
 0.83194081808E-02 0.52862436227E-02 0.32647166653E-02 0.19821778403E-02 0.11914670213E-02
 0.71596967874E-03 0.43476814466E-03 0.24407687655E-03 0.14693638063E-03 0.80770742668E-04
 0.51317884496E-04 0.33106509862E-04 0.26153185326E-04 0.21412691504E-04 0.25931146170E-04
 0.31964837674E-04 0.52489878049E-04 0.81388405263E-04 0.14213731871E-03 0.24279704471E-03
 0.42033669086E-03 0.70494048243E-03 0.11924420866E-02 0.19957759101E-02 0.32547821058E-02
 0.53170474488E-02 0.83142034719E-02 0.12852677955E-01 0.19372517715E-01 0.58488174630E-01
 0.82728208350E-01 0.11233825023E+00 0.14609615929E+00 0.18125886185E+00 0.21387103399E+00
 0.23920965604E+00 0.25309060201E+00 0.25309449153E+00 0.23919747073E+00 0.21392090581E+00
 0.18135857704E+00 0.14614862638E+00 0.11233183113E+00 0.82660995123E-01 0.58461104795E-01
 0.39902088127E-01 0.26385973595E-01 0.16975080541E-01 0.10647758088E-01 0.65563514377E-02
 0.39459731836E-02 0.23307179833E-02 0.13668528069E-02 0.79533440611E-03 0.44584732354E-03
 0.26216188253E-03 0.14402687144E-03 0.87093020377E-04 0.49284766678E-04 0.33071470564E-04
 0.23311654405E-04 0.25931152121E-04 0.31154875529E-04 0.51772951480E-04 0.82916557622E-04
 0.14915065764E-03 0.25737478513E-03 0.45311749767E-03 0.78772153496E-03 0.13738802391E-02
 0.23464485989E-02 0.39431529447E-02 0.65633772937E-02 0.10600953498E-01 0.16985824551E-01