unknown system                          
   1.00000000000000     
     3.459762   -0.000000    1.997495
     1.153254    3.261896    1.997495
    -0.000000   -0.000000    3.994989
   Na   Cl
     1     1
Direct
  0.000000  0.000000  0.000000
  0.500000  0.500000  0.500000
 
   48   48   48
  533.46      519.27      478.13      414.39      335.35      250.55      170.27      103.26      54.720      25.209    
  11.042      5.9052      3.6544      2.4149      1.7871      1.4916      1.3637      1.3174      1.3114      1.3259    
  1.3503      1.3772      1.4007      1.4166      1.4222      1.4166      1.4007      1.3772      1.3503      1.3259    
  1.3114      1.3174      1.3637      1.4916      1.7871      2.4149      3.6544      5.9052      11.042      25.209    
  54.720      103.26      170.27      250.55      335.35      414.39      478.13      519.27      519.27      491.60    
  439.16      367.78      285.98      203.79      130.84      74.141      36.457      16.029      7.6145      4.5546    
  2.9015      2.0307      1.6062      1.4142      1.3370      1.3158      1.3229      1.3444      1.3716      1.3980    
  1.4185      1.4296      1.4296      1.4185      1.3980      1.3716      1.3444      1.3230      1.3159      1.3371    
  1.4142      1.6061      2.0306      2.9015      4.5545      7.6145      16.029      36.457      74.141      130.84    
  203.79      285.98      367.78      439.16      491.60      519.27      478.13      439.16      379.07      305.03    
  226.24      152.35      91.387      47.875      21.963      9.8795      5.5295      3.4620      2.3274      1.7547    
  1.4867      1.3728      1.3344      1.3337      1.3523      1.3800      1.4094      1.4347      1.4517      1.4576    
  1.4516      1.4347      1.4094      1.3800      1.3524      1.3338      1.3345      1.3728      1.4867      1.7547    
  2.3273      3.4619      5.5295      9.8796      21.963      47.875      91.387      152.35      226.24      305.03    
  379.07      439.15      478.12      491.60      414.39      367.78      305.03      234.13      164.12      103.26    
  57.193      27.655      12.442      6.4995      4.0433      2.6545      1.9279      1.5768      1.4217      1.3644    
  1.3556      1.3718      1.4005      1.4334      1.4640      1.4872      1.4997      1.4997      1.4872      1.4640    
  1.4334      1.4006      1.3719      1.3558      1.3645      1.4218      1.5768      1.9278      2.6544      4.0433    
  6.4995      12.442      27.655      57.193      103.26      164.12      234.13      305.03      367.78      414.39    
  439.15      439.16      335.35      285.98      226.24      164.12      107.50      62.426      31.766      14.708    
  7.4158      4.5753      2.9763      2.1092      1.6766      1.4794      1.4024      1.3858      1.4003      1.4307    
  1.4678      1.5044      1.5347      1.5546      1.5615      1.5546      1.5347      1.5044      1.4678      1.4308    
  1.4004      1.3859      1.4024      1.4793      1.6766      2.1091      2.9762      4.5752      7.4158      14.708    
  31.766      62.426      107.50      164.12      226.24      285.98      335.35      367.78      379.07      367.78    
  250.55      203.79      152.35      103.26      62.426      33.265      16.043      8.1029      4.9831      3.2499    
  2.2763      1.7749      1.5394      1.4441      1.4206      1.4343      1.4676      1.5098      1.5533      1.5917    
  1.6201      1.6351      1.6351      1.6201      1.5917      1.5533      1.5098      1.4676      1.4344      1.4206    
  1.4441      1.5394      1.7748      2.2763      3.2499      4.9831      8.1029      16.043      33.265      62.426    
  103.26      152.35      203.79      250.55      285.98      305.03      305.03      285.98      170.27      130.84    
  91.387      57.193      31.766      16.043      8.3603      5.2047      3.4343      2.4054      1.8584      1.5943    
  1.4845      1.4560      1.4702      1.5074      1.5560      1.6075      1.6550      1.6930      1.7175      1.7259    
  1.7175      1.6930      1.6550      1.6075      1.5560      1.5074      1.4702      1.4559      1.4845      1.5943    
  1.8585      2.4054      3.4342      5.2046      8.3603      16.043      31.766      57.193      91.387      130.84    
  170.27      203.79      226.24      234.13      226.24      203.79      103.26      74.141      47.875      27.655    
  14.708      8.1029      5.2047      3.4993      2.4758      1.9147      1.6363      1.5183      1.4875      1.5039    
  1.5463      1.6022      1.6628      1.7207      1.7695      1.8047      1.8231      1.8231      1.8047      1.7696    
  1.7207      1.6628      1.6022      1.5462      1.5039      1.4875      1.5183      1.6364      1.9148      2.4758    
  3.4993      5.2046      8.1029      14.708      27.655      47.875      74.141      103.26      130.84      152.35    
  164.12      164.12      152.35      130.84      54.720      36.457      21.963      12.442      7.4158      4.9831    
  3.4343      2.4758      1.9346      1.6592      1.5408      1.5112      1.5314      1.5800      1.6443      1.7149    
  1.7840      1.8449      1.8922      1.9221      1.9323      1.9221      1.8922      1.8449      1.7840      1.7148    
  1.6442      1.5800      1.5314      1.5112      1.5409      1.6593      1.9347      2.4758      3.4343      4.9831    
  7.4157      12.441      21.963      36.458      54.720      74.141      91.387      103.26      107.50      103.26    
  91.387      74.141      25.209      16.029      9.8795      6.4995      4.5753      3.2499      2.4054      1.9147    
  1.6592      1.5487      1.5239      1.5494      1.6049      1.6779      1.7590      1.8401      1.9140      1.9746    
  2.0175      2.0397      2.0397      2.0175      1.9746      1.9140      1.8401      1.7589      1.6778      1.6049    
  1.5494      1.5239      1.5488      1.6593      1.9148      2.4054      3.2499      4.5752      6.4994      9.8794    
  16.029      25.209      36.458      47.875      57.193      62.426      62.426      57.193      47.875      36.457    
  11.042      7.6145      5.5295      4.0433      2.9763      2.2763      1.8584      1.6363      1.5408      1.5239    
  1.5557      1.6181      1.6996      1.7910      1.8842      1.9716      2.0464      2.1034      2.1391      2.1512    
  2.1391      2.1034      2.0464      1.9716      1.8842      1.7910      1.6996      1.6181      1.5557      1.5239    
  1.5409      1.6364      1.8585      2.2764      2.9762      4.0433      5.5294      7.6143      11.042      16.029    
  21.963      27.655      31.766      33.265      31.766      27.655      21.963      16.029      5.9052      4.5546    
  3.4620      2.6545      2.1092      1.7749      1.5943      1.5183      1.5112      1.5494      1.6181      1.7071    
  1.8079      1.9125      2.0129      2.1021      2.1741      2.2244      2.2503      2.2503      2.2244      2.1741    
  2.1021      2.0129      1.9125      1.8079      1.7071      1.6181      1.5494      1.5112      1.5183      1.5943    
  1.7749      2.1092      2.6544      3.4619      4.5545      5.9051      7.6143      9.8794      12.441      14.708    
  16.043      16.043      14.708      12.442      9.8796      7.6145      3.6544      2.9015      2.3274      1.9279    
  1.6766      1.5394      1.4845      1.4875      1.5314      1.6049      1.6996      1.8079      1.9222      2.0346    
  2.1375      2.2244      2.2902      2.3310      2.3448      2.3310      2.2901      2.2244      2.1375      2.0346    
  1.9222      1.8080      1.6996      1.6049      1.5314      1.4874      1.4844      1.5393      1.6766      1.9279    
  2.3274      2.9015      3.6543      4.5545      5.5294      6.4994      7.4157      8.1029      8.3603      8.1029    
  7.4158      6.4995      5.5295      4.5545      2.4149      2.0307      1.7547      1.5768      1.4794      1.4441    
  1.4560      1.5039      1.5800      1.6779      1.7910      1.9125      2.0346      2.1497      2.2507      2.3316    
  2.3881      2.4170      2.4170      2.3881      2.3316      2.2507      2.1497      2.0346      1.9125      1.7911    
  1.6779      1.5800      1.5039      1.4559      1.4440      1.4793      1.5768      1.7548      2.0307      2.4149    
  2.9015      3.4619      4.0433      4.5752      4.9831      5.2046      5.2046      4.9831      4.5752      4.0433    
  3.4619      2.9015      1.7871      1.6062      1.4867      1.4217      1.4024      1.4206      1.4702      1.5463    
  1.6443      1.7590      1.8842      2.0129      2.1375      2.2507      2.3458      2.4176      2.4623      2.4774    
  2.4623      2.4176      2.3458      2.2507      2.1376      2.0130      1.8843      1.7590      1.6443      1.5463    
  1.4702      1.4206      1.4023      1.4217      1.4867      1.6062      1.7872      2.0307      2.3274      2.6544    
  2.9762      3.2499      3.4343      3.4993      3.4342      3.2499      2.9762      2.6544      2.3273      2.0306    
  1.4916      1.4142      1.3728      1.3644      1.3858      1.4343      1.5074      1.6022      1.7149      1.8401    
  1.9716      2.1021      2.2244      2.3316      2.4176      2.4777      2.5085      2.5085      2.4777      2.4176    
  2.3316      2.2245      2.1022      1.9716      1.8401      1.7149      1.6022      1.5074      1.4343      1.3858    
  1.3644      1.3728      1.4142      1.4917      1.6062      1.7548      1.9279      2.1092      2.2764      2.4054    
  2.4758      2.4758      2.4054      2.2763      2.1091      1.9278      1.7547      1.6061      1.3637      1.3370    
  1.3344      1.3556      1.4003      1.4676      1.5560      1.6628      1.7840      1.9140      2.0464      2.1741    
  2.2902      2.3881      2.4623      2.5085      2.5243      2.5085      2.4623      2.3881      2.2902      2.1741    
  2.0464      1.9140      1.7840      1.6628      1.5560      1.4676      1.4003      1.3557      1.3344      1.3370    
  1.3637      1.4142      1.4867      1.5768      1.6766      1.7749      1.8585      1.9148      1.9347      1.9148    
  1.8585      1.7748      1.6766      1.5768      1.4867      1.4142      1.3174      1.3158      1.3337      1.3718    
  1.4307      1.5098      1.6075      1.7207      1.8449      1.9746      2.1034      2.2244      2.3310      2.4170    
  2.4774      2.5085      2.5085      2.4774      2.4170      2.3310      2.2244      2.1034      1.9746      1.8449    
  1.7206      1.6075      1.5099      1.4308      1.3719      1.3338      1.3159      1.3174      1.3370      1.3728    
  1.4217      1.4793      1.5393      1.5943      1.6364      1.6593      1.6593      1.6364      1.5943      1.5394    
  1.4793      1.4218      1.3728      1.3371      1.3114      1.3229      1.3523      1.4005      1.4678      1.5533    
  1.6550      1.7695      1.8922      2.0175      2.1391      2.2503      2.3448      2.4170      2.4623      2.4777    
  2.4623      2.4170      2.3449      2.2503      2.1390      2.0174      1.8921      1.7694      1.6550      1.5534    
  1.4679      1.4007      1.3524      1.3230      1.3114      1.3159      1.3344      1.3644      1.4023      1.4440    
  1.4844      1.5183      1.5409      1.5488      1.5409      1.5183      1.4845      1.4441      1.4024      1.3645    
  1.3345      1.3159      1.3259      1.3444      1.3800      1.4334      1.5044      1.5917      1.6930      1.8047    
  1.9221      2.0397      2.1512      2.2503      2.3310      2.3881      2.4176      2.4176      2.3881      2.3310    
  2.2503      2.1511      2.0395      1.9219      1.8046      1.6929      1.5917      1.5045      1.4336      1.3802    
  1.3446      1.3260      1.3230      1.3338      1.3557      1.3858      1.4206      1.4559      1.4874      1.5112    
  1.5239      1.5239      1.5112      1.4875      1.4559      1.4206      1.3859      1.3558      1.3338      1.3230    
  1.3503      1.3716      1.4094      1.4640      1.5347      1.6201      1.7175      1.8231      1.9323      2.0397    
  2.1391      2.2244      2.2901      2.3316      2.3458      2.3316      2.2902      2.2244      2.1390      2.0395    
  1.9321      1.8229      1.7173      1.6200      1.5348      1.4642      1.4097      1.3719      1.3505      1.3446    
  1.3524      1.3719      1.4003      1.4343      1.4702      1.5039      1.5314      1.5494      1.5557      1.5494    
  1.5314      1.5039      1.4702      1.4344      1.4004      1.3719      1.3524      1.3444      1.3772      1.3980    
  1.4347      1.4872      1.5546      1.6351      1.7259      1.8231      1.9221      2.0175      2.1034      2.1741    
  2.2244      2.2507      2.2507      2.2245      2.1741      2.1034      2.0174      1.9219      1.8229      1.7257    
  1.6350      1.5547      1.4875      1.4351      1.3984      1.3776      1.3719      1.3802      1.4007      1.4308    
  1.4676      1.5074      1.5463      1.5800      1.6049      1.6181      1.6181      1.6049      1.5800      1.5462    
  1.5074      1.4676      1.4308      1.4006      1.3800      1.3716      1.4007      1.4185      1.4517      1.4997    
  1.5615      1.6351      1.7175      1.8047      1.8922      1.9746      2.0464      2.1021      2.1375      2.1497    
  2.1376      2.1022      2.0464      1.9746      1.8921      1.8046      1.7173      1.6350      1.5616      1.4999    
  1.4520      1.4190      1.4012      1.3984      1.4097      1.4336      1.4679      1.5099      1.5560      1.6022    
  1.6443      1.6779      1.6996      1.7071      1.6996      1.6778      1.6442      1.6022      1.5560      1.5098    
  1.4678      1.4334      1.4094      1.3980      1.4166      1.4296      1.4576      1.4997      1.5546      1.6201    
  1.6930      1.7696      1.8449      1.9140      1.9716      2.0129      2.0346      2.0346      2.0130      1.9716    
  1.9140      1.8449      1.7694      1.6929      1.6200      1.5547      1.4999      1.4580      1.4302      1.4172    
  1.4190      1.4351      1.4642      1.5045      1.5534      1.6075      1.6628      1.7149      1.7590      1.7911    
  1.8080      1.8079      1.7910      1.7589      1.7148      1.6628      1.6075      1.5533      1.5044      1.4640    
  1.4347      1.4185      1.4222      1.4296      1.4516      1.4872      1.5347      1.5917      1.6550      1.7207    
  1.7840      1.8401      1.8842      1.9125      1.9222      1.9125      1.8843      1.8401      1.7840      1.7206    
  1.6550      1.5917      1.5348      1.4875      1.4520      1.4302      1.4228      1.4302      1.4520      1.4875    
  1.5348      1.5917      1.6550      1.7206      1.7840      1.8401      1.8843      1.9125      1.9222      1.9125    
  1.8842      1.8401      1.7840      1.7207      1.6550      1.5917      1.5347      1.4872      1.4516      1.4296    
  1.4166      1.4185      1.4347      1.4640      1.5044      1.5533      1.6075      1.6628      1.7148      1.7589    
  1.7910      1.8079      1.8080      1.7911      1.7590      1.7149      1.6628      1.6075      1.5534      1.5045    
  1.4642      1.4351      1.4190      1.4172      1.4302      1.4580      1.4999      1.5547      1.6200      1.6929    
  1.7694      1.8449      1.9140      1.9716      2.0130      2.0346      2.0346      2.0129      1.9716      1.9140    
  1.8449      1.7696      1.6930      1.6201      1.5546      1.4997      1.4576      1.4296      1.4007      1.3980    
  1.4094      1.4334      1.4678      1.5098      1.5560      1.6022      1.6442      1.6778      1.6996      1.7071    
  1.6996      1.6779      1.6443      1.6022      1.5560      1.5099      1.4679      1.4336      1.4097      1.3984    
  1.4012      1.4190      1.4520      1.4999      1.5616      1.6350      1.7173      1.8046      1.8921      1.9746    
  2.0464      2.1022      2.1376      2.1497      2.1375      2.1021      2.0464      1.9746      1.8922      1.8047    
  1.7175      1.6351      1.5615      1.4997      1.4517      1.4185      1.3772      1.3716      1.3800      1.4006    
  1.4308      1.4676      1.5074      1.5462      1.5800      1.6049      1.6181      1.6181      1.6049      1.5800    
  1.5463      1.5074      1.4676      1.4308      1.4007      1.3802      1.3719      1.3776      1.3984      1.4351    
  1.4875      1.5547      1.6350      1.7257      1.8229      1.9219      2.0174      2.1034      2.1741      2.2245    
  2.2507      2.2507      2.2244      2.1741      2.1034      2.0175      1.9221      1.8231      1.7259      1.6351    
  1.5546      1.4872      1.4347      1.3980      1.3503      1.3444      1.3524      1.3719      1.4004      1.4344    
  1.4702      1.5039      1.5314      1.5494      1.5557      1.5494      1.5314      1.5039      1.4702      1.4343    
  1.4003      1.3719      1.3524      1.3446      1.3505      1.3719      1.4097      1.4642      1.5348      1.6200    
  1.7173      1.8229      1.9321      2.0395      2.1390      2.2244      2.2902      2.3316      2.3458      2.3316    
  2.2901      2.2244      2.1391      2.0397      1.9323      1.8231      1.7175      1.6201      1.5347      1.4640    
  1.4094      1.3716      1.3259      1.3230      1.3338      1.3558      1.3859      1.4206      1.4559      1.4875    
  1.5112      1.5239      1.5239      1.5112      1.4874      1.4559      1.4206      1.3858      1.3557      1.3338    
  1.3230      1.3260      1.3446      1.3802      1.4336      1.5045      1.5917      1.6929      1.8046      1.9219    
  2.0395      2.1511      2.2503      2.3310      2.3881      2.4176      2.4176      2.3881      2.3310      2.2503    
  2.1512      2.0397      1.9221      1.8047      1.6930      1.5917      1.5044      1.4334      1.3800      1.3444    
  1.3114      1.3159      1.3345      1.3645      1.4024      1.4441      1.4845      1.5183      1.5409      1.5488    
  1.5409      1.5183      1.4844      1.4440      1.4023      1.3644      1.3344      1.3159      1.3114      1.3230    
  1.3524      1.4007      1.4679      1.5534      1.6550      1.7694      1.8921      2.0174      2.1390      2.2503    
  2.3449      2.4170      2.4623      2.4777      2.4623      2.4170      2.3448      2.2503      2.1391      2.0175    
  1.8922      1.7695      1.6550      1.5533      1.4678      1.4005      1.3523      1.3229      1.3174      1.3371    
  1.3728      1.4218      1.4793      1.5394      1.5943      1.6364      1.6593      1.6593      1.6364      1.5943    
  1.5393      1.4793      1.4217      1.3728      1.3370      1.3174      1.3159      1.3338      1.3719      1.4308    
  1.5099      1.6075      1.7206      1.8449      1.9746      2.1034      2.2244      2.3310      2.4170      2.4774    
  2.5085      2.5085      2.4774      2.4170      2.3310      2.2244      2.1034      1.9746      1.8449      1.7207    
  1.6075      1.5098      1.4307      1.3718      1.3337      1.3158      1.3637      1.4142      1.4867      1.5768    
  1.6766      1.7748      1.8585      1.9148      1.9347      1.9148      1.8585      1.7749      1.6766      1.5768    
  1.4867      1.4142      1.3637      1.3370      1.3344      1.3557      1.4003      1.4676      1.5560      1.6628    
  1.7840      1.9140      2.0464      2.1741      2.2902      2.3881      2.4623      2.5085      2.5243      2.5085    
  2.4623      2.3881      2.2902      2.1741      2.0464      1.9140      1.7840      1.6628      1.5560      1.4676    
  1.4003      1.3556      1.3344      1.3370      1.4916      1.6061      1.7547      1.9278      2.1091      2.2763    
  2.4054      2.4758      2.4758      2.4054      2.2764      2.1092      1.9279      1.7548      1.6062      1.4917    
  1.4142      1.3728      1.3644      1.3858      1.4343      1.5074      1.6022      1.7149      1.8401      1.9716    
  2.1022      2.2245      2.3316      2.4176      2.4777      2.5085      2.5085      2.4777      2.4176      2.3316    
  2.2244      2.1021      1.9716      1.8401      1.7149      1.6022      1.5074      1.4343      1.3858      1.3644    
  1.3728      1.4142      1.7871      2.0306      2.3273      2.6544      2.9762      3.2499      3.4342      3.4993    
  3.4343      3.2499      2.9762      2.6544      2.3274      2.0307      1.7872      1.6062      1.4867      1.4217    
  1.4023      1.4206      1.4702      1.5463      1.6443      1.7590      1.8843      2.0130      2.1376      2.2507    
  2.3458      2.4176      2.4623      2.4774      2.4623      2.4176      2.3458      2.2507      2.1375      2.0129    
  1.8842      1.7590      1.6443      1.5463      1.4702      1.4206      1.4024      1.4217      1.4867      1.6062    
  2.4149      2.9015      3.4619      4.0433      4.5752      4.9831      5.2046      5.2046      4.9831      4.5752    
  4.0433      3.4619      2.9015      2.4149      2.0307      1.7548      1.5768      1.4793      1.4440      1.4559    
  1.5039      1.5800      1.6779      1.7911      1.9125      2.0346      2.1497      2.2507      2.3316      2.3881    
  2.4170      2.4170      2.3881      2.3316      2.2507      2.1497      2.0346      1.9125      1.7910      1.6779    
  1.5800      1.5039      1.4560      1.4441      1.4794      1.5768      1.7547      2.0307      3.6544      4.5545    
  5.5295      6.4995      7.4158      8.1029      8.3603      8.1029      7.4157      6.4994      5.5294      4.5545    
  3.6543      2.9015      2.3274      1.9279      1.6766      1.5393      1.4844      1.4874      1.5314      1.6049    
  1.6996      1.8080      1.9222      2.0346      2.1375      2.2244      2.2901      2.3310      2.3448      2.3310    
  2.2902      2.2244      2.1375      2.0346      1.9222      1.8079      1.6996      1.6049      1.5314      1.4875    
  1.4845      1.5394      1.6766      1.9279      2.3274      2.9015      5.9052      7.6145      9.8796      12.442    
  14.708      16.043      16.043      14.708      12.441      9.8794      7.6143      5.9051      4.5545      3.4619    
  2.6544      2.1092      1.7749      1.5943      1.5183      1.5112      1.5494      1.6181      1.7071      1.8079    
  1.9125      2.0129      2.1021      2.1741      2.2244      2.2503      2.2503      2.2244      2.1741      2.1021    
  2.0129      1.9125      1.8079      1.7071      1.6181      1.5494      1.5112      1.5183      1.5943      1.7749    
  2.1092      2.6545      3.4620      4.5546      11.042      16.029      21.963      27.655      31.766      33.265    
  31.766      27.655      21.963      16.029      11.042      7.6143      5.5294      4.0433      2.9762      2.2764    
  1.8585      1.6364      1.5409      1.5239      1.5557      1.6181      1.6996      1.7910      1.8842      1.9716    
  2.0464      2.1034      2.1391      2.1512      2.1391      2.1034      2.0464      1.9716      1.8842      1.7910    
  1.6996      1.6181      1.5557      1.5239      1.5408      1.6363      1.8584      2.2763      2.9763      4.0433    
  5.5295      7.6145      25.209      36.457      47.875      57.193      62.426      62.426      57.193      47.875    
  36.458      25.209      16.029      9.8794      6.4994      4.5752      3.2499      2.4054      1.9148      1.6593    
  1.5488      1.5239      1.5494      1.6049      1.6778      1.7589      1.8401      1.9140      1.9746      2.0175    
  2.0397      2.0397      2.0175      1.9746      1.9140      1.8401      1.7590      1.6779      1.6049      1.5494    
  1.5239      1.5487      1.6592      1.9147      2.4054      3.2499      4.5753      6.4995      9.8795      16.029    
  54.720      74.141      91.387      103.26      107.50      103.26      91.387      74.141      54.720      36.458    
  21.963      12.441      7.4157      4.9831      3.4343      2.4758      1.9347      1.6593      1.5409      1.5112    
  1.5314      1.5800      1.6442      1.7148      1.7840      1.8449      1.8922      1.9221      1.9323      1.9221    
  1.8922      1.8449      1.7840      1.7149      1.6443      1.5800      1.5314      1.5112      1.5408      1.6592    
  1.9346      2.4758      3.4343      4.9831      7.4158      12.442      21.963      36.457      103.26      130.84    
  152.35      164.12      164.12      152.35      130.84      103.26      74.141      47.875      27.655      14.708    
  8.1029      5.2046      3.4993      2.4758      1.9148      1.6364      1.5183      1.4875      1.5039      1.5462    
  1.6022      1.6628      1.7207      1.7696      1.8047      1.8231      1.8231      1.8047      1.7695      1.7207    
  1.6628      1.6022      1.5463      1.5039      1.4875      1.5183      1.6363      1.9147      2.4758      3.4993    
  5.2047      8.1029      14.708      27.655      47.875      74.141      170.27      203.79      226.24      234.13    
  226.24      203.79      170.27      130.84      91.387      57.193      31.766      16.043      8.3603      5.2046    
  3.4342      2.4054      1.8585      1.5943      1.4845      1.4559      1.4702      1.5074      1.5560      1.6075    
  1.6550      1.6930      1.7175      1.7259      1.7175      1.6930      1.6550      1.6075      1.5560      1.5074    
  1.4702      1.4560      1.4845      1.5943      1.8584      2.4054      3.4343      5.2047      8.3603      16.043    
  31.766      57.193      91.387      130.84      250.55      285.98      305.03      305.03      285.98      250.55    
  203.79      152.35      103.26      62.426      33.265      16.043      8.1029      4.9831      3.2499      2.2763    
  1.7748      1.5394      1.4441      1.4206      1.4344      1.4676      1.5098      1.5533      1.5917      1.6201    
  1.6351      1.6351      1.6201      1.5917      1.5533      1.5098      1.4676      1.4343      1.4206      1.4441    
  1.5394      1.7749      2.2763      3.2499      4.9831      8.1029      16.043      33.265      62.426      103.26    
  152.35      203.79      335.35      367.78      379.07      367.78      335.35      285.98      226.24      164.12    
  107.50      62.426      31.766      14.708      7.4158      4.5752      2.9762      2.1091      1.6766      1.4793    
  1.4024      1.3859      1.4004      1.4308      1.4678      1.5044      1.5347      1.5546      1.5615      1.5546    
  1.5347      1.5044      1.4678      1.4307      1.4003      1.3858      1.4024      1.4794      1.6766      2.1092    
  2.9763      4.5753      7.4158      14.708      31.766      62.426      107.50      164.12      226.24      285.98    
  414.39      439.16      439.15      414.39      367.78      305.03      234.13      164.12      103.26      57.193    
  27.655      12.442      6.4995      4.0433      2.6544      1.9278      1.5768      1.4218      1.3645      1.3558    
  1.3719      1.4006      1.4334      1.4640      1.4872      1.4997      1.4997      1.4872      1.4640      1.4334    
  1.4005      1.3718      1.3556      1.3644      1.4217      1.5768      1.9279      2.6545      4.0433      6.4995    
  12.442      27.655      57.193      103.26      164.12      234.13      305.03      367.78      478.13      491.60    
  478.12      439.15      379.07      305.03      226.24      152.35      91.387      47.875      21.963      9.8796    
  5.5295      3.4619      2.3273      1.7547      1.4867      1.3728      1.3345      1.3338      1.3524      1.3800    
  1.4094      1.4347      1.4516      1.4576      1.4517      1.4347      1.4094      1.3800      1.3523      1.3337    
  1.3344      1.3728      1.4867      1.7547      2.3274      3.4620      5.5295      9.8795      21.963      47.875    
  91.387      152.35      226.24      305.03      379.07      439.16      519.27      519.27      491.60      439.16    
  367.78      285.98      203.79      130.84      74.141      36.457      16.029      7.6145      4.5545      2.9015    
  2.0306      1.6061      1.4142      1.3371      1.3159      1.3230      1.3444      1.3716      1.3980      1.4185    
  1.4296      1.4296      1.4185      1.3980      1.3716      1.3444      1.3229      1.3158      1.3370      1.4142    
  1.6062      2.0307      2.9015      4.5546      7.6145      16.029      36.457      74.141      130.84      203.79    
  285.98      367.78      439.16      491.60      519.27      491.60      439.16      367.78      285.98      203.79    
  130.84      74.141      36.457      16.029      7.6145      4.5546      2.9015      2.0307      1.6062      1.4142    
  1.3370      1.3158      1.3229      1.3444      1.3716      1.3980      1.4185      1.4296      1.4296      1.4185    
  1.3980      1.3716      1.3444      1.3230      1.3159      1.3371      1.4142      1.6061      2.0306      2.9015    
  4.5545      7.6145      16.029      36.458      74.141      130.84      203.79      285.98      367.78      439.16    
  491.60      519.27      491.60      451.90      390.60      314.90      234.13      158.14      95.206      50.059    
  22.983      10.233      5.6369      3.5080      2.3371      1.7442      1.4649      1.3439      1.3003      1.2953    
  1.3101      1.3346      1.3613      1.3846      1.4003      1.4058      1.4002      1.3845      1.3613      1.3346    
  1.3102      1.2954      1.3004      1.3439      1.4648      1.7441      2.3370      3.5079      5.6369      10.233    
  22.984      50.059      95.206      158.14      234.13      314.90      390.60      451.90      491.60      505.31    
  439.16      390.60      325.01      250.54      176.59      111.86      62.411      30.313      13.487      6.8062    
  4.1743      2.6975      1.9208      1.5418      1.3700      1.3012      1.2833      1.2915      1.3131      1.3400    
  1.3659      1.3859      1.3967      1.3967      1.3858      1.3658      1.3400      1.3131      1.2916      1.2834    
  1.3013      1.3700      1.5417      1.9207      2.6973      4.1743      6.8063      13.487      30.313      62.411    
  111.86      176.59      250.54      325.01      390.60      439.15      464.89      464.89      367.78      314.90    