unknown system                          
   1.00000000000000     
     3.459762   -0.000000    1.997495
     1.153254    3.261896    1.997495
    -0.000000   -0.000000    3.994989
   Na   Cl
     1     1
Direct
  0.000000  0.000000  0.000000
  0.500000  0.500000  0.500000
 
   48   48   48
 0.53345585201E+03 0.51926662091E+03 0.47812524348E+03 0.41439165423E+03 0.33534616467E+03
 0.25054852603E+03 0.17026646860E+03 0.10326035454E+03 0.54720109132E+02 0.25208882685E+02
 0.11041930013E+02 0.59051978411E+01 0.36543648106E+01 0.24148542380E+01 0.17870985724E+01
 0.14916278466E+01 0.13637178641E+01 0.13174149047E+01 0.13113519158E+01 0.13258661360E+01
 0.13502824442E+01 0.13771891194E+01 0.14007440010E+01 0.14166212779E+01 0.14222030210E+01
 0.14166212779E+01 0.14007440010E+01 0.13771891194E+01 0.13502824442E+01 0.13258661360E+01
 0.13113519158E+01 0.13174149047E+01 0.13637178641E+01 0.14916278466E+01 0.17870985724E+01
 0.24148542380E+01 0.36543648106E+01 0.59051978411E+01 0.11041930013E+02 0.25208882685E+02
 0.54720109132E+02 0.10326035454E+03 0.17026646860E+03 0.25054852603E+03 0.33534616467E+03
 0.41439165423E+03 0.47812524348E+03 0.51926662091E+03 0.51926661982E+03 0.49159952527E+03
 0.43915537890E+03 0.36778026540E+03 0.28597771803E+03 0.20378971489E+03 0.13084364990E+03
 0.74140622426E+02 0.36457398772E+02 0.16028706005E+02 0.76144795539E+01 0.45545666351E+01
 0.29015178342E+01 0.20306832985E+01 0.16061658579E+01 0.14142089976E+01 0.13370078221E+01
 0.13158464840E+01 0.13229390887E+01 0.13443942043E+01 0.13716114049E+01 0.13980282971E+01
 0.14185337159E+01 0.14296469350E+01 0.14296352938E+01 0.14185059288E+01 0.13980021943E+01
 0.13716063868E+01 0.13444209794E+01 0.13229931802E+01 0.13159089430E+01 0.13370531825E+01
 0.14142172290E+01 0.16061328358E+01 0.20306247280E+01 0.29014640324E+01 0.45545496482E+01
 0.76145176977E+01 0.16028792732E+02 0.36457499921E+02 0.74140685525E+02 0.13084362271E+03
 0.20378956641E+03 0.28597745415E+03 0.36777993213E+03 0.43915505155E+03 0.49159928617E+03
 0.51926653222E+03 0.47812523921E+03 0.43915537578E+03 0.37907036712E+03 0.30503383739E+03
 0.22624214367E+03 0.15235141593E+03 0.91386930037E+02 0.47875228178E+02 0.21962905972E+02
 0.98794630514E+01 0.55294850752E+01 0.34619529269E+01 0.23274327763E+01 0.17547376347E+01
 0.14867318833E+01 0.13727807927E+01 0.13344037390E+01 0.13336839157E+01 0.13523081456E+01
 0.13800016320E+01 0.14094234106E+01 0.14347427942E+01 0.14516543331E+01 0.14575636199E+01
 0.14516195864E+01 0.14346950562E+01 0.14093951964E+01 0.13800193993E+01 0.13523776791E+01
 0.13337851212E+01 0.13344979208E+01 0.13728277377E+01 0.14867093460E+01 0.17546541557E+01
 0.23273271908E+01 0.34618794060E+01 0.55294890153E+01 0.98795583874E+01 0.21963062775E+02
 0.47875376776E+02 0.91386983574E+02 0.15235130321E+03 0.22624183994E+03 0.30503338086E+03
 0.37906985347E+03 0.43915493142E+03 0.47812498177E+03 0.49159928294E+03 0.41439164508E+03
 0.36778025767E+03 0.30503383299E+03 0.23413462696E+03 0.16411942829E+03 0.10326317187E+03
 0.57192897129E+02 0.27654831437E+02 0.12441506302E+02 0.64995055005E+01 0.40433474364E+01
 0.26544664745E+01 0.19279270969E+01 0.15768404080E+01 0.14217479036E+01 0.13643839360E+01
 0.13556466232E+01 0.13718472429E+01 0.14005140309E+01 0.14333956303E+01 0.14639936814E+01
 0.14872419635E+01 0.14997082179E+01 0.14996890675E+01 0.14871964154E+01 0.14639514647E+01
 0.14333892070E+01 0.14005614094E+01 0.13719409885E+01 0.13557546125E+01 0.13644622877E+01
 0.14217607555E+01 0.15767778531E+01 0.19278127200E+01 0.26543501495E+01 0.40432851908E+01
 0.64995343514E+01 0.12441625908E+02 0.27654997340E+02 0.57193032566E+02 0.10326319515E+03
 0.16411928529E+03 0.23413431617E+03 0.30503341262E+03 0.36777983094E+03 0.41439132803E+03
 0.43915492623E+03 0.43915504324E+03 0.33534614988E+03 0.28597770526E+03 0.22624213474E+03
 0.16411942405E+03 0.10749526479E+03 0.62425593648E+02 0.31765945285E+02 0.14708099140E+02
 0.74157893770E+01 0.45752664002E+01 0.29762532655E+01 0.21091963681E+01 0.16766346241E+01
 0.14793667543E+01 0.14023795993E+01 0.13858267224E+01 0.14002882440E+01 0.14307167376E+01
 0.14677959572E+01 0.15043863249E+01 0.15347372526E+01 0.15546300414E+01 0.15615311129E+01
 0.15546065122E+01 0.15347052896E+01 0.15043685797E+01 0.14678110176E+01 0.14307688203E+01
 0.14003631435E+01 0.13858962777E+01 0.14024131695E+01 0.14793449558E+01 0.16765593058E+01
 0.21090921190E+01 0.29761591565E+01 0.45752208130E+01 0.74158143378E+01 0.14708191532E+02
 0.31766074367E+02 0.62425711273E+02 0.10749532348E+03 0.16411939582E+03 0.22624202313E+03
 0.28597754533E+03 0.33534599619E+03 0.36777982417E+03 0.37906984172E+03 0.36777991764E+03
 0.25054850626E+03 0.20378969814E+03 0.15235140384E+03 0.10326316491E+03 0.62425591037E+02
 0.33264749789E+02 0.16042531308E+02 0.81029398630E+01 0.49831208595E+01 0.32499436398E+01
 0.22763425664E+01 0.17748881399E+01 0.15393846345E+01 0.14440947920E+01 0.14206307265E+01
 0.14343468604E+01 0.14675666988E+01 0.15098163622E+01 0.15533256216E+01 0.15917307102E+01
 0.16200952848E+01 0.16351014056E+01 0.16350985688E+01 0.16200886033E+01 0.15917248288E+01
 0.15533257836E+01 0.15098257398E+01 0.14675843420E+01 0.14343671907E+01 0.14206448922E+01
 0.14440935611E+01 0.15393618775E+01 0.17748437361E+01 0.22762836994E+01 0.32498839630E+01
 0.49830776920E+01 0.81029310297E+01 0.16042572118E+02 0.33264846842E+02 0.62425740193E+02
 0.10326335174E+03 0.15235160641E+03 0.20378989106E+03 0.25054866483E+03 0.28597753766E+03
 0.30503339851E+03 0.30503336235E+03 0.28597743371E+03 0.17026644625E+03 0.13084363179E+03
 0.91386917372E+02 0.57192889869E+02 0.31765942223E+02 0.16042530602E+02 0.83603312809E+01
 0.52046963349E+01 0.34342630407E+01 0.24053555733E+01 0.18584444672E+01 0.15942795379E+01
 0.14844916796E+01 0.14559539022E+01 0.14702406865E+01 0.15074402746E+01 0.15559782728E+01
 0.16074808920E+01 0.16550286547E+01 0.16930329835E+01 0.17174502296E+01 0.17258618608E+01
 0.17174621636E+01 0.16930488550E+01 0.16550366680E+01 0.16074717878E+01 0.15559506223E+01
 0.15074019893E+01 0.14702057011E+01 0.14559353903E+01 0.14844949208E+01 0.15942981301E+01
 0.18584622209E+01 0.24053541148E+01 0.34342322488E+01 0.52046432477E+01 0.83602840005E+01
 0.16042533358E+02 0.31766039043E+02 0.57193107636E+02 0.91387251906E+02 0.13084404277E+03
 0.17026686379E+03 0.20378988339E+03 0.22624200825E+03 0.23413429565E+03 0.22624181612E+03
 0.20378954199E+03 0.10326033323E+03 0.74140606351E+02 0.47875217861E+02 0.27654826172E+02
 0.14708097303E+02 0.81029395993E+01 0.52046963352E+01 0.34993369350E+01 0.24757629369E+01
 0.19147160838E+01 0.16363478600E+01 0.15182948615E+01 0.14874765967E+01 0.15039093082E+01
 0.15462991707E+01 0.16022356520E+01 0.16628280562E+01 0.17206566429E+01 0.17695284315E+01
 0.18047214548E+01 0.18231033128E+01 0.18231150075E+01 0.18047484868E+01 0.17695507995E+01
 0.17206528893E+01 0.16627870863E+01 0.16021640940E+01 0.15462204099E+01 0.15038540812E+01
 0.14874690569E+01 0.15183403798E+01 0.16364285717E+01 0.19147970181E+01 0.24758071247E+01
 0.34993234916E+01 0.52046339226E+01 0.81028695708E+01 0.14708082923E+02 0.27654927663E+02
 0.47875467565E+02 0.74140991338E+02 0.10326079235E+03 0.13084403604E+03 0.15235159260E+03
 0.16411937583E+03 0.16411926107E+03 0.15235127730E+03 0.13084359787E+03 0.54720092580E+02
 0.36457387652E+02 0.21962899969E+02 0.12441504066E+02 0.74157890535E+01 0.49831208604E+01
 0.34342630415E+01 0.24757629373E+01 0.19345845488E+01 0.16591998931E+01 0.15407859664E+01
 0.15111661060E+01 0.15314071974E+01 0.15800286117E+01 0.16442544925E+01 0.17148555117E+01
 0.17839934154E+01 0.18449097428E+01 0.18922247393E+01 0.19221244955E+01 0.19323493289E+01
 0.19221448287E+01 0.18922497636E+01 0.18449163732E+01 0.17839636615E+01 0.17147874097E+01
 0.16441659694E+01 0.15799519883E+01 0.15313761174E+01 0.15112004586E+01 0.15408814203E+01
 0.16593273347E+01 0.19347003488E+01 0.24758267236E+01 0.34342555896E+01 0.49830548763E+01
 0.74157079093E+01 0.12441468284E+02 0.21962961940E+02 0.36457569466E+02 0.54720374164E+02
 0.74140986316E+02 0.91387240826E+02 0.10326333479E+03 0.10749530197E+03 0.10326317124E+03
 0.91386959829E+02 0.74140664428E+02 0.25208873097E+02 0.16028700870E+02 0.98794612707E+01
 0.64995053512E+01 0.45752664016E+01 0.32499436413E+01 0.24053555745E+01 0.19147160845E+01
 0.16591998933E+01 0.15486766782E+01 0.15238754682E+01 0.15494027693E+01 0.16049081969E+01
 0.16778613603E+01 0.17589662622E+01 0.18401006089E+01 0.19140005938E+01 0.19746349364E+01
 0.20175024403E+01 0.20396644662E+01 0.20396707491E+01 0.20175156301E+01 0.19746410576E+01
 0.19139851479E+01 0.18400573063E+01 0.17589026588E+01 0.16777982207E+01 0.16048725206E+01
 0.15494168509E+01 0.15239467443E+01 0.15487925935E+01 0.16593306570E+01 0.19148244367E+01
 0.24054103841E+01 0.32499316235E+01 0.45751976582E+01 0.64994101335E+01 0.98793801093E+01
 0.16028667819E+02 0.25208902245E+02 0.36457566466E+02 0.47875460230E+02 0.57193095539E+02
 0.62425723955E+02 0.62425692425E+02 0.57193013210E+02 0.47875359125E+02 0.36457485801E+02
 0.11041926896E+02 0.76144787587E+01 0.55294850764E+01 0.40433474383E+01 0.29762532676E+01
 0.22763425681E+01 0.18584444682E+01 0.16363478605E+01 0.15407859665E+01 0.15238754682E+01
 0.15556633319E+01 0.16181110364E+01 0.16995730754E+01 0.17910198368E+01 0.18842386700E+01
 0.19715721277E+01 0.20463676468E+01 0.21034098639E+01 0.21390552786E+01 0.21511709207E+01
 0.21390541038E+01 0.21034049184E+01 0.20463555578E+01 0.19715515056E+01 0.18842124282E+01
 0.17909958100E+01 0.16995623226E+01 0.16181242329E+01 0.15557064688E+01 0.15239465423E+01
 0.15408740137E+01 0.16364349675E+01 0.18585101707E+01 0.22763693388E+01 0.29762312275E+01
 0.40432767008E+01 0.55293755088E+01 0.76143473144E+01 0.11041793077E+02 0.16028666599E+02
 0.21962958338E+02 0.27654920950E+02 0.31766029246E+02 0.33264834792E+02 0.31766061508E+02
 0.27654985362E+02 0.21963053172E+02 0.16028786377E+02 0.59051978043E+01 0.45545666370E+01
 0.34619529292E+01 0.26544664767E+01 0.21091963698E+01 0.17748881410E+01 0.15942795385E+01
 0.15182948617E+01 0.15111661060E+01 0.15494027692E+01 0.16181110364E+01 0.17070797377E+01
 0.18078872834E+01 0.19124664626E+01 0.20129392744E+01 0.21021240538E+01 0.21740896213E+01
 0.22244336035E+01 0.22502998810E+01 0.22502940631E+01 0.22244186941E+01 0.21740722542E+01
 0.21021123471E+01 0.20129397416E+01 0.19124816866E+01 0.18079153066E+01 0.17071152890E+01
 0.16181479617E+01 0.15494364364E+01 0.15111946450E+01 0.15183185760E+01 0.15942988089E+01
 0.17749008142E+01 0.21091960651E+01 0.26544431056E+01 0.34618953026E+01 0.45544672680E+01
 0.59050573388E+01 0.76143471453E+01 0.98793791837E+01 0.12441465966E+02 0.14708078917E+02
 0.16042527902E+02 0.16042565956E+02 0.14708185691E+02 0.12441621356E+02 0.98795556820E+01
 0.76145167339E+01 0.36543648129E+01 0.29015178366E+01 0.23274327784E+01 0.19279270984E+01
 0.16766346250E+01 0.15393846349E+01 0.14844916796E+01 0.14874765965E+01 0.15314071972E+01
 0.16049081968E+01 0.16995730753E+01 0.18078872834E+01 0.19221789702E+01 0.20345706757E+01
 0.21375186597E+01 0.22244452072E+01 0.22901585482E+01 0.23310053663E+01 0.23448482718E+01
 0.23309904318E+01 0.22901378899E+01 0.22244330674E+01 0.21375277570E+01 0.20346061242E+01
 0.19222353295E+01 0.18079501009E+01 0.16996243311E+01 0.16049334136E+01 0.15314011736E+01
 0.14874453160E+01 0.14844494419E+01 0.15393475990E+01 0.16766134346E+01 0.19279216799E+01
 0.23274319378E+01 0.29015035746E+01 0.36543202385E+01 0.45544672679E+01 0.55293755085E+01
 0.64994100017E+01 0.74157073690E+01 0.81028685259E+01 0.83602826321E+01 0.81029297216E+01
 0.74158134747E+01 0.64995340710E+01 0.55294890167E+01 0.45545496502E+01 0.24148542402E+01
 0.20306833001E+01 0.17547376357E+01 0.15768404086E+01 0.14793667544E+01 0.14440947918E+01
 0.14559539019E+01 0.15039093079E+01 0.15800286115E+01 0.16778613602E+01 0.17910198368E+01
 0.19124664626E+01 0.20345706758E+01 0.21496543406E+01 0.22506502222E+01 0.23316221806E+01
 0.23880659265E+01 0.24170124643E+01 0.24170054750E+01 0.23880501043E+01 0.23316105423E+01
 0.22506574781E+01 0.21496895776E+01 0.20346321383E+01 0.19125407406E+01 0.17910860500E+01
 0.16778987466E+01 0.15800245630E+01 0.15038645409E+01 0.14558826861E+01 0.14440199796E+01
 0.14793115573E+01 0.15768201746E+01 0.17547546189E+01 0.20307267600E+01 0.24149053482E+01
 0.29015035747E+01 0.34618953028E+01 0.40432767010E+01 0.45751976584E+01 0.49830548767E+01
 0.52046339232E+01 0.52046432486E+01 0.49830776934E+01 0.45752208149E+01 0.40432851931E+01
 0.34618794085E+01 0.29014640348E+01 0.17870985735E+01 0.16061658585E+01 0.14867318834E+01
 0.14217479034E+01 0.14023795990E+01 0.14206307262E+01 0.14702406863E+01 0.15462991706E+01
 0.16442544925E+01 0.17589662623E+01 0.18842386701E+01 0.20129392745E+01 0.21375186598E+01
 0.22506502222E+01 0.23457958084E+01 0.24176235925E+01 0.24622613156E+01 0.24773931575E+01
 0.24622553486E+01 0.24176184541E+01 0.23458018054E+01 0.22506759989E+01 0.21375663482E+01
 0.20130021058E+01 0.18843022023E+01 0.17590129478E+01 0.16442699189E+01 0.15462776394E+01
 0.14701879299E+01 0.14205627203E+01 0.14023178365E+01 0.14217127769E+01 0.14867367185E+01
 0.16062133180E+01 0.17871808028E+01 0.20307267602E+01 0.23274319382E+01 0.26544431062E+01
 0.29762312283E+01 0.32499316245E+01 0.34342555910E+01 0.34993234934E+01 0.34342322509E+01
 0.32498839653E+01 0.29761591590E+01 0.26543501519E+01 0.23273271928E+01 0.20306247296E+01
 0.14916278468E+01 0.14142089975E+01 0.13727807924E+01 0.13643839357E+01 0.13858267222E+01
 0.14343468604E+01 0.15074402747E+01 0.16022356522E+01 0.17148555119E+01 0.18401006091E+01
 0.19715721279E+01 0.21021240539E+01 0.22244452073E+01 0.23316221806E+01 0.24176235925E+01
 0.24776799637E+01 0.25085300609E+01 0.25085312587E+01 0.24776845548E+01 0.24176340497E+01
 0.23316410645E+01 0.22244735240E+01 0.21021600103E+01 0.19716109012E+01 0.18401352941E+01
 0.17148790603E+01 0.16022431514E+01 0.15074308730E+01 0.14343246072E+01 0.13858000435E+01
 0.13643638661E+01 0.13727783123E+01 0.14142324520E+01 0.14916808627E+01 0.16062133182E+01
 0.17547546194E+01 0.19279216806E+01 0.21091960661E+01 0.22763693401E+01 0.24054103857E+01
 0.24758267254E+01 0.24758071267E+01 0.24053541170E+01 0.22762837015E+01 0.21090921209E+01
 0.19278127215E+01 0.17546541567E+01 0.16061328364E+01 0.13637178639E+01 0.13370078220E+01
 0.13344037390E+01 0.13556466234E+01 0.14002882444E+01 0.14675666993E+01 0.15559782733E+01
 0.16628280567E+01 0.17839934158E+01 0.19140005941E+01 0.20463676470E+01 0.21740896214E+01
 0.22901585483E+01 0.23880659265E+01 0.24622613156E+01 0.25085300609E+01 0.25242527068E+01
 0.25085413499E+01 0.24622799061E+01 0.23880855384E+01 0.22901732730E+01 0.21740964195E+01
 0.20463676034E+01 0.19139983935E+01 0.17839952509E+01 0.16628388888E+01 0.15559995934E+01
 0.14675958290E+01 0.14003194930E+01 0.13556738045E+01 0.13344231142E+01 0.13370199606E+01
 0.13637277691E+01 0.14142324522E+01 0.14867367189E+01 0.15768201753E+01 0.16766134355E+01
 0.17749008154E+01 0.18585101722E+01 0.19148244384E+01 0.19347003506E+01 0.19147970199E+01
 0.18584622225E+01 0.17748437375E+01 0.16765593069E+01 0.15767778538E+01 0.14867093463E+01
 0.14142172290E+01 0.13174149049E+01 0.13158464844E+01 0.13336839164E+01 0.13718472437E+01
 0.14307167386E+01 0.15098163632E+01 0.16074808928E+01 0.17206566435E+01 0.18449097432E+01
 0.19746349367E+01 0.21034098640E+01 0.22244336036E+01 0.23310053663E+01 0.24170124643E+01
 0.24773931575E+01 0.25085312587E+01 0.25085413500E+01 0.24774180921E+01 0.24170385748E+01
 0.23310167631E+01 0.22244194453E+01 0.21033697718E+01 0.19745801856E+01 0.18448596563E+01
 0.17206314797E+01 0.16074940696E+01 0.15098690324E+01 0.14307969190E+01 0.13719338704E+01
 0.13337541313E+01 0.13158835221E+01 0.13174133823E+01 0.13370199608E+01 0.13727783127E+01
 0.14217127775E+01 0.14793115581E+01 0.15393476000E+01 0.15942988101E+01 0.16364349689E+01
 0.16593306585E+01 0.16593273361E+01 0.16364285729E+01 0.15942981311E+01 0.15393618782E+01
 0.14793449562E+01 0.14217607557E+01 0.13728277378E+01 0.13370531826E+01 0.13113519168E+01
 0.13229390899E+01 0.13523081469E+01 0.14005140322E+01 0.14677959584E+01 0.15533256226E+01
 0.16550286554E+01 0.17695284320E+01 0.18922247395E+01 0.20175024403E+01 0.21390552787E+01
 0.22502998810E+01 0.23448482718E+01 0.24170054751E+01 0.24622553487E+01 0.24776845548E+01
 0.24622799062E+01 0.24170385748E+01 0.23448650439E+01 0.22502779600E+01 0.21389856404E+01
 0.20173951578E+01 0.18921071118E+01 0.17694360114E+01 0.16549925100E+01 0.15533607796E+01
 0.14678954482E+01 0.14006508042E+01 0.13524441848E+01 0.13230380146E+01 0.13113905407E+01
 0.13158835222E+01 0.13344231145E+01 0.13643638666E+01 0.14023178372E+01 0.14440199805E+01
 0.14844494429E+01 0.15183185771E+01 0.15408740149E+01 0.15487925947E+01 0.15408814213E+01
 0.15183403807E+01 0.14844949214E+01 0.14440935616E+01 0.14024131699E+01 0.13644622881E+01
 0.13344979213E+01 0.13159089438E+01 0.13258661376E+01 0.13443942059E+01 0.13800016334E+01
 0.14333956315E+01 0.15043863258E+01 0.15917307109E+01 0.16930329838E+01 0.18047214549E+01
 0.19221244955E+01 0.20396644661E+01 0.21511709207E+01 0.22502940631E+01 0.23309904318E+01
 0.23880501044E+01 0.24176184542E+01 0.24176340498E+01 0.23880855384E+01 0.23310167631E+01
 0.22502779600E+01 0.21510905151E+01 0.20395212195E+01 0.19219460424E+01 0.18045538989E+01
 0.16929254480E+01 0.15917179318E+01 0.15044759870E+01 0.14335652605E+01 0.13802060913E+01
 0.13445809538E+01 0.13259922651E+01 0.13230380147E+01 0.13337541316E+01 0.13556738049E+01
 0.13858000440E+01 0.14205627210E+01 0.14558826869E+01 0.14874453170E+01 0.15111946460E+01
 0.15239465433E+01 0.15239467453E+01 0.15112004595E+01 0.14874690577E+01 0.14559353910E+01
 0.14206448929E+01 0.13858962785E+01 0.13557546135E+01 0.13337851224E+01 0.13229931816E+01
 0.13502824458E+01 0.13716114063E+01 0.14094234117E+01 0.14639936822E+01 0.15347372530E+01
 0.16200952848E+01 0.17174502294E+01 0.18231033125E+01 0.19323493287E+01 0.20396707489E+01
 0.21390541038E+01 0.22244186942E+01 0.22901378900E+01 0.23316105424E+01 0.23458018056E+01
 0.23316410646E+01 0.22901732731E+01 0.22244194454E+01 0.21389856404E+01 0.20395212195E+01
 0.19321389570E+01 0.18228810672E+01 0.17172786606E+01 0.16200291977E+01 0.15348043040E+01
 0.14641843333E+01 0.14096940771E+01 0.13718992991E+01 0.13505265269E+01 0.13445809539E+01
 0.13524441849E+01 0.13719338707E+01 0.14003194934E+01 0.14343246077E+01 0.14701879305E+01
 0.15038645416E+01 0.15314011744E+01 0.15494364372E+01 0.15557064697E+01 0.15494168518E+01
 0.15313761183E+01 0.15038540821E+01 0.14702057021E+01 0.14343671918E+01 0.14003631449E+01
 0.13719409901E+01 0.13523776808E+01 0.13444209811E+01 0.13771891205E+01 0.13980282978E+01
 0.14347427945E+01 0.14872419635E+01 0.15546300410E+01 0.16351014051E+01 0.17258618603E+01
 0.18231150071E+01 0.19221448284E+01 0.20175156300E+01 0.21034049185E+01 0.21740722544E+01
 0.22244330676E+01 0.22506574783E+01 0.22506759990E+01 0.22244735241E+01 0.21740964196E+01
 0.21033697718E+01 0.20173951578E+01 0.19219460424E+01 0.18228810672E+01 0.17256604783E+01
 0.16350025326E+01 0.15546813422E+01 0.14874515145E+01 0.14350756098E+01 0.13984180905E+01
 0.13775605454E+01 0.13718992991E+01 0.13802060914E+01 0.14006508044E+01 0.14307969193E+01
 0.14675958294E+01 0.15074308735E+01 0.15462776400E+01 0.15800245637E+01 0.16049334143E+01
 0.16181479624E+01 0.16181242337E+01 0.16048725215E+01 0.15799519893E+01 0.15462204111E+01
 0.15074019906E+01 0.14675843435E+01 0.14307688219E+01 0.14005614111E+01 0.13800194009E+01
 0.13716063882E+01 0.14007440012E+01 0.14185337156E+01 0.14516543325E+01 0.14997082172E+01
 0.15615311121E+01 0.16350985680E+01 0.17174621630E+01 0.18047484865E+01 0.18922497635E+01
 0.19746410577E+01 0.20463555581E+01 0.21021123474E+01 0.21375277573E+01 0.21496895779E+01
 0.21375663484E+01 0.21021600104E+01 0.20463676035E+01 0.19745801857E+01 0.18921071119E+01
 0.18045538990E+01 0.17172786606E+01 0.16350025326E+01 0.15615854833E+01 0.14999390978E+01
 0.14520402013E+01 0.14190114401E+01 0.14012295685E+01 0.13984180906E+01 0.14096940772E+01
 0.14335652606E+01 0.14678954484E+01 0.15098690327E+01 0.15559995938E+01 0.16022431518E+01
 0.16442699194E+01 0.16778987471E+01 0.16996243317E+01 0.17071152897E+01 0.16995623234E+01
 0.16777982217E+01 0.16441659705E+01 0.16021640953E+01 0.15559506237E+01 0.15098257412E+01
 0.14678110189E+01 0.14333892081E+01 0.14093951973E+01 0.13980021948E+01 0.14166212773E+01
 0.14296469341E+01 0.14575636189E+01 0.14996890666E+01 0.15546065115E+01 0.16200886029E+01
 0.16930488548E+01 0.17695507996E+01 0.18449163735E+01 0.19139851483E+01 0.19715515061E+01
 0.20129397420E+01 0.20346061246E+01 0.20346321386E+01 0.20130021061E+01 0.19716109014E+01
 0.19139983936E+01 0.18448596564E+01 0.17694360115E+01 0.16929254480E+01 0.16200291978E+01
 0.15546813422E+01 0.14999390978E+01 0.14579829542E+01 0.14301818141E+01 0.14171862817E+01
 0.14190114401E+01 0.14350756098E+01 0.14641843334E+01 0.15044759871E+01 0.15533607797E+01
 0.16074940698E+01 0.16628388891E+01 0.17148790606E+01 0.17590129482E+01 0.17910860505E+01
 0.18079501014E+01 0.18079153073E+01 0.17909958108E+01 0.17589026597E+01 0.17147874107E+01
 0.16627870874E+01 0.16074717888E+01 0.15533257845E+01 0.15043685804E+01 0.14639514650E+01
 0.14346950562E+01 0.14185059284E+01 0.14222030199E+01 0.14296352928E+01 0.14516195856E+01
 0.14871964149E+01 0.15347052895E+01 0.15917248289E+01 0.16550366684E+01 0.17206528899E+01
 0.17839636622E+01 0.18400573070E+01 0.18842124289E+01 0.19124816872E+01 0.19222353300E+01
 0.19125407410E+01 0.18843022026E+01 0.18401352943E+01 0.17839952510E+01 0.17206314798E+01
 0.16549925101E+01 0.15917179318E+01 0.15348043041E+01 0.14874515146E+01 0.14520402013E+01
 0.14301818141E+01 0.14227965050E+01 0.14301818141E+01 0.14520402013E+01 0.14874515146E+01
 0.15348043041E+01 0.15917179318E+01 0.16549925101E+01 0.17206314798E+01 0.17839952510E+01
 0.18401352943E+01 0.18843022026E+01 0.19125407410E+01 0.19222353300E+01 0.19124816872E+01
 0.18842124289E+01 0.18400573070E+01 0.17839636622E+01 0.17206528899E+01 0.16550366684E+01
 0.15917248289E+01 0.15347052895E+01 0.14871964149E+01 0.14516195856E+01 0.14296352928E+01
 0.14166212773E+01 0.14185059284E+01 0.14346950562E+01 0.14639514650E+01 0.15043685804E+01
 0.15533257845E+01 0.16074717888E+01 0.16627870874E+01 0.17147874107E+01 0.17589026597E+01
 0.17909958108E+01 0.18079153073E+01 0.18079501014E+01 0.17910860505E+01 0.17590129482E+01
 0.17148790606E+01 0.16628388891E+01 0.16074940698E+01 0.15533607797E+01 0.15044759871E+01
 0.14641843334E+01 0.14350756098E+01 0.14190114401E+01 0.14171862817E+01 0.14301818141E+01
 0.14579829542E+01 0.14999390978E+01 0.15546813422E+01 0.16200291978E+01 0.16929254480E+01
 0.17694360115E+01 0.18448596564E+01 0.19139983936E+01 0.19716109014E+01 0.20130021061E+01
 0.20346321386E+01 0.20346061246E+01 0.20129397420E+01 0.19715515061E+01 0.19139851483E+01
 0.18449163735E+01 0.17695507996E+01 0.16930488548E+01 0.16200886029E+01 0.15546065115E+01
 0.14996890666E+01 0.14575636189E+01 0.14296469341E+01 0.14007440012E+01 0.13980021948E+01
 0.14093951973E+01 0.14333892081E+01 0.14678110189E+01 0.15098257412E+01 0.15559506237E+01
 0.16021640953E+01 0.16441659705E+01 0.16777982217E+01 0.16995623234E+01 0.17071152897E+01
 0.16996243317E+01 0.16778987471E+01 0.16442699194E+01 0.16022431518E+01 0.15559995938E+01
 0.15098690327E+01 0.14678954484E+01 0.14335652606E+01 0.14096940772E+01 0.13984180906E+01
 0.14012295685E+01 0.14190114401E+01 0.14520402013E+01 0.14999390978E+01 0.15615854833E+01
 0.16350025326E+01 0.17172786606E+01 0.18045538990E+01 0.18921071119E+01 0.19745801857E+01
 0.20463676035E+01 0.21021600104E+01 0.21375663484E+01 0.21496895779E+01 0.21375277573E+01
 0.21021123474E+01 0.20463555581E+01 0.19746410577E+01 0.18922497635E+01 0.18047484865E+01
 0.17174621630E+01 0.16350985680E+01 0.15615311121E+01 0.14997082172E+01 0.14516543325E+01
 0.14185337156E+01 0.13771891205E+01 0.13716063882E+01 0.13800194009E+01 0.14005614111E+01
 0.14307688219E+01 0.14675843435E+01 0.15074019906E+01 0.15462204111E+01 0.15799519893E+01
 0.16048725215E+01 0.16181242337E+01 0.16181479624E+01 0.16049334143E+01 0.15800245637E+01
 0.15462776400E+01 0.15074308735E+01 0.14675958294E+01 0.14307969193E+01 0.14006508044E+01
 0.13802060914E+01 0.13718992991E+01 0.13775605454E+01 0.13984180905E+01 0.14350756098E+01
 0.14874515145E+01 0.15546813422E+01 0.16350025326E+01 0.17256604783E+01 0.18228810672E+01
 0.19219460424E+01 0.20173951578E+01 0.21033697718E+01 0.21740964196E+01 0.22244735241E+01
 0.22506759990E+01 0.22506574783E+01 0.22244330676E+01 0.21740722544E+01 0.21034049185E+01
 0.20175156300E+01 0.19221448284E+01 0.18231150071E+01 0.17258618603E+01 0.16351014051E+01
 0.15546300410E+01 0.14872419635E+01 0.14347427945E+01 0.13980282978E+01 0.13502824458E+01
 0.13444209811E+01 0.13523776808E+01 0.13719409901E+01 0.14003631449E+01 0.14343671918E+01
 0.14702057021E+01 0.15038540821E+01 0.15313761183E+01 0.15494168518E+01 0.15557064697E+01
 0.15494364372E+01 0.15314011744E+01 0.15038645416E+01 0.14701879305E+01 0.14343246077E+01
 0.14003194934E+01 0.13719338707E+01 0.13524441849E+01 0.13445809539E+01 0.13505265269E+01
 0.13718992991E+01 0.14096940771E+01 0.14641843333E+01 0.15348043040E+01 0.16200291977E+01
 0.17172786606E+01 0.18228810672E+01 0.19321389570E+01 0.20395212195E+01 0.21389856404E+01
 0.22244194454E+01 0.22901732731E+01 0.23316410646E+01 0.23458018056E+01 0.23316105424E+01
 0.22901378900E+01 0.22244186942E+01 0.21390541038E+01 0.20396707489E+01 0.19323493287E+01
 0.18231033125E+01 0.17174502294E+01 0.16200952848E+01 0.15347372530E+01 0.14639936822E+01
 0.14094234117E+01 0.13716114063E+01 0.13258661376E+01 0.13229931816E+01 0.13337851224E+01
 0.13557546135E+01 0.13858962785E+01 0.14206448929E+01 0.14559353910E+01 0.14874690577E+01
 0.15112004595E+01 0.15239467453E+01 0.15239465433E+01 0.15111946460E+01 0.14874453170E+01
 0.14558826869E+01 0.14205627210E+01 0.13858000440E+01 0.13556738049E+01 0.13337541316E+01
 0.13230380147E+01 0.13259922651E+01 0.13445809538E+01 0.13802060913E+01 0.14335652605E+01
 0.15044759870E+01 0.15917179317E+01 0.16929254480E+01 0.18045538989E+01 0.19219460424E+01
 0.20395212195E+01 0.21510905151E+01 0.22502779600E+01 0.23310167631E+01 0.23880855384E+01
 0.24176340498E+01 0.24176184542E+01 0.23880501044E+01 0.23309904318E+01 0.22502940631E+01
 0.21511709207E+01 0.20396644661E+01 0.19221244955E+01 0.18047214549E+01 0.16930329838E+01
 0.15917307109E+01 0.15043863258E+01 0.14333956315E+01 0.13800016334E+01 0.13443942059E+01
 0.13113519168E+01 0.13159089438E+01 0.13344979213E+01 0.13644622881E+01 0.14024131699E+01
 0.14440935616E+01 0.14844949214E+01 0.15183403807E+01 0.15408814213E+01 0.15487925947E+01
 0.15408740149E+01 0.15183185771E+01 0.14844494429E+01 0.14440199805E+01 0.14023178372E+01
 0.13643638666E+01 0.13344231145E+01 0.13158835222E+01 0.13113905407E+01 0.13230380146E+01
 0.13524441848E+01 0.14006508042E+01 0.14678954482E+01 0.15533607796E+01 0.16549925100E+01
 0.17694360114E+01 0.18921071118E+01 0.20173951578E+01 0.21389856404E+01 0.22502779600E+01
 0.23448650439E+01 0.24170385748E+01 0.24622799062E+01 0.24776845548E+01 0.24622553487E+01
 0.24170054751E+01 0.23448482718E+01 0.22502998810E+01 0.21390552787E+01 0.20175024403E+01
 0.18922247395E+01 0.17695284320E+01 0.16550286554E+01 0.15533256226E+01 0.14677959584E+01
 0.14005140322E+01 0.13523081469E+01 0.13229390899E+01 0.13174149049E+01 0.13370531826E+01
 0.13728277378E+01 0.14217607557E+01 0.14793449562E+01 0.15393618782E+01 0.15942981311E+01
 0.16364285729E+01 0.16593273361E+01 0.16593306585E+01 0.16364349689E+01 0.15942988101E+01
 0.15393476000E+01 0.14793115581E+01 0.14217127775E+01 0.13727783127E+01 0.13370199608E+01
 0.13174133823E+01 0.13158835221E+01 0.13337541313E+01 0.13719338704E+01 0.14307969190E+01
 0.15098690324E+01 0.16074940696E+01 0.17206314797E+01 0.18448596563E+01 0.19745801856E+01
 0.21033697718E+01 0.22244194453E+01 0.23310167631E+01 0.24170385748E+01 0.24774180921E+01
 0.25085413500E+01 0.25085312587E+01 0.24773931575E+01 0.24170124643E+01 0.23310053663E+01
 0.22244336036E+01 0.21034098640E+01 0.19746349367E+01 0.18449097432E+01 0.17206566435E+01
 0.16074808928E+01 0.15098163632E+01 0.14307167386E+01 0.13718472437E+01 0.13336839164E+01
 0.13158464844E+01 0.13637178639E+01 0.14142172290E+01 0.14867093463E+01 0.15767778538E+01
 0.16765593069E+01 0.17748437375E+01 0.18584622225E+01 0.19147970199E+01 0.19347003506E+01
 0.19148244384E+01 0.18585101722E+01 0.17749008154E+01 0.16766134355E+01 0.15768201753E+01
 0.14867367189E+01 0.14142324522E+01 0.13637277691E+01 0.13370199606E+01 0.13344231142E+01
 0.13556738045E+01 0.14003194930E+01 0.14675958290E+01 0.15559995934E+01 0.16628388888E+01
 0.17839952509E+01 0.19139983935E+01 0.20463676034E+01 0.21740964195E+01 0.22901732730E+01
 0.23880855384E+01 0.24622799061E+01 0.25085413499E+01 0.25242527068E+01 0.25085300609E+01
 0.24622613156E+01 0.23880659265E+01 0.22901585483E+01 0.21740896214E+01 0.20463676470E+01
 0.19140005941E+01 0.17839934158E+01 0.16628280567E+01 0.15559782733E+01 0.14675666993E+01
 0.14002882444E+01 0.13556466234E+01 0.13344037390E+01 0.13370078220E+01 0.14916278468E+01
 0.16061328364E+01 0.17546541567E+01 0.19278127215E+01 0.21090921209E+01 0.22762837015E+01
 0.24053541170E+01 0.24758071267E+01 0.24758267254E+01 0.24054103857E+01 0.22763693401E+01
 0.21091960661E+01 0.19279216806E+01 0.17547546194E+01 0.16062133182E+01 0.14916808627E+01
 0.14142324520E+01 0.13727783123E+01 0.13643638661E+01 0.13858000435E+01 0.14343246072E+01
 0.15074308730E+01 0.16022431514E+01 0.17148790603E+01 0.18401352941E+01 0.19716109012E+01
 0.21021600103E+01 0.22244735240E+01 0.23316410645E+01 0.24176340497E+01 0.24776845548E+01
 0.25085312587E+01 0.25085300609E+01 0.24776799637E+01 0.24176235925E+01 0.23316221806E+01
 0.22244452073E+01 0.21021240539E+01 0.19715721279E+01 0.18401006091E+01 0.17148555119E+01
 0.16022356522E+01 0.15074402747E+01 0.14343468604E+01 0.13858267222E+01 0.13643839357E+01