unknown system                          
   1.00000000000000     
     3.459762   -0.000000    1.997495
     1.153254    3.261896    1.997495
    -0.000000   -0.000000    3.994989
   Na   Cl
     1     1
Direct
  0.000000  0.000000  0.000000
  0.500000  0.500000  0.500000
 
   48   48   48
 2.66683116219E+05  9.32879101440E+03  1.62941221743E+03  9.83463761230E+02  5.68512151660E+02
 3.04942175537E+02  1.58869986428E+02  8.23064659590E+01  4.29760615880E+01  2.28523617702E+01
 1.24823878531E+01  7.05714075280E+00  4.18360328876E+00  2.66858896101E+00  1.90915766626E+00
 1.55074849297E+00  1.39252058697E+00  1.33166264389E+00  1.31847503632E+00  1.32957593077E+00
 1.35226465777E+00  1.37839439916E+00  1.40152161631E+00  1.41727122438E+00  1.42276049699E+00
 1.41727122438E+00  1.40152161631E+00  1.37839439916E+00  1.35226465777E+00  1.32957593077E+00
 1.31847503632E+00  1.33166264389E+00  1.39252058697E+00  1.55074849297E+00  1.90915766626E+00
 2.66858896101E+00  4.18360328876E+00  7.05714075280E+00  1.24823878531E+01  2.28523617702E+01
 4.29760615880E+01  8.23064659590E+01  1.58869986428E+02  3.04942175537E+02  5.68512151660E+02
 9.83463761230E+02  1.62941221743E+03  9.32879101440E+03  9.32878889840E+03  2.06630983133E+03
 1.16369313895E+03  7.14411581320E+02  3.97695397580E+02  2.10950968097E+02  1.10080637854E+02
 5.74843904370E+01  3.03935242990E+01  1.64304902939E+01  9.15374496480E+00  5.30214719947E+00
 3.25990106912E+00  2.20290612888E+00  1.68950510447E+00  1.45466688762E+00  1.35695536799E+00
 1.32575228388E+00  1.32803320575E+00  1.34705791847E+00  1.37312550062E+00  1.39894569316E+00
 1.41919851788E+00  1.43020961063E+00  1.43021227443E+00  1.41919980827E+00  1.39894291434E+00
 1.37312656543E+00  1.34705605200E+00  1.32803566867E+00  1.32575108903E+00  1.35695639608E+00
 1.45466636688E+00  1.68950525980E+00  2.20290700046E+00  3.25989912949E+00  5.30215065770E+00
 9.15373911880E+00  1.64305061636E+01  3.03935177672E+01  5.74844314920E+01  1.10080618836E+02
 2.10951050832E+02  3.97695435390E+02  7.14411615400E+02  1.16369323306E+03  2.06630982195E+03
 9.32879061050E+03  1.62941221287E+03  1.16369314764E+03  7.72647541960E+02  4.57196980220E+02
 2.52573519517E+02  1.35218117167E+02  7.16842193930E+01  3.81673359574E+01  2.06422238413E+01
 1.14441120197E+01  6.53273466680E+00  3.94487128234E+00  2.56055302898E+00  1.86763722012E+00
 1.54166648481E+00  1.39974338389E+00  1.34780644763E+00  1.34048504528E+00  1.35585656538E+00
 1.38192537813E+00  1.41053542471E+00  1.43544802191E+00  1.45219108732E+00  1.45805939789E+00
 1.45218754095E+00  1.43544914854E+00  1.41053719070E+00  1.38192619069E+00  1.35585599364E+00
 1.34048385613E+00  1.34780651089E+00  1.39974301951E+00  1.54166672193E+00  1.86763634058E+00
 2.56055433461E+00  3.94486977158E+00  6.53273089570E+00  1.14441132362E+01  2.06422524489E+01
 3.81673483312E+01  7.16842668260E+01  1.35218120574E+02  2.52573592635E+02  4.57197009600E+02
 7.72647562050E+02  1.16369314057E+03  1.62941221257E+03  2.06630968339E+03  9.83463753760E+02
 7.14411554620E+02  4.57196965170E+02  2.68686172146E+02  1.50454521837E+02  8.23089843120E+01
 4.47493537020E+01  2.45024983234E+01  1.36589008261E+01  7.82366255970E+00  4.66141710815E+00
 2.95546208558E+00  2.07453858720E+00  1.64856127030E+00  1.45695620263E+00  1.38189977678E+00
 1.36447438132E+00  1.37643933482E+00  1.40295814186E+00  1.43476818189E+00  1.46479024014E+00
 1.48776608804E+00  1.50011854935E+00  1.50012111026E+00  1.48776505331E+00  1.46479258871E+00
 1.43476227585E+00  1.40296203490E+00  1.37643611511E+00  1.36447930419E+00  1.38189629468E+00
 1.45695989956E+00  1.64855852923E+00  2.07454115865E+00  2.95546065319E+00  4.66142065149E+00
 7.82366716140E+00  1.36588931326E+01  2.45024913048E+01  4.47493415470E+01  8.23090196920E+01
 1.50454561977E+02  2.68686266815E+02  4.57197048170E+02  7.14411611210E+02  9.83463691490E+02
 1.16369315505E+03  1.16369325625E+03  5.68512097560E+02  3.97695357010E+02  2.52573498441E+02
 1.50454514936E+02  8.62780968370E+01  4.85681082800E+01  2.72546058951E+01  1.54421105559E+01
 8.92651109430E+00  5.32290347516E+00  3.34532651158E+00  2.29096454738E+00  1.76638207475E+00
 1.52363314219E+00  1.42449569728E+00  1.39690251941E+00  1.40606751948E+00  1.43371811864E+00
 1.46950734611E+00  1.50528828568E+00  1.53532591545E+00  1.55494944334E+00  1.56187786428E+00
 1.55495149514E+00  1.53532365421E+00  1.50528966650E+00  1.46950872627E+00  1.43371798948E+00
 1.40606722722E+00  1.39690085329E+00  1.42449608506E+00  1.52363170835E+00  1.76638355458E+00
 2.29096220621E+00  3.34532543307E+00  5.32290011539E+00  8.92652947800E+00  1.54421160438E+01
 2.72546295688E+01  4.85680993240E+01  8.62780717650E+01  1.50454547799E+02  2.52573452372E+02
 3.97695415480E+02  5.68512210190E+02  7.14411587850E+02  7.72647524870E+02  7.14411565340E+02
 3.04942122399E+02  2.10950933366E+02  1.35218098943E+02  8.23089768520E+01  4.85681062470E+01
 2.82574738673E+01  1.64443292646E+01  9.68625322880E+00  5.83411905047E+00  3.67807176294E+00
 2.49074294384E+00  1.88210370667E+00  1.59288619929E+00  1.47094034302E+00  1.43415433451E+00
 1.44131933143E+00  1.47121538689E+00  1.51181866927E+00  1.55442589450E+00  1.59235697919E+00
 1.62044156021E+00  1.63532744055E+00  1.63532867678E+00  1.62043716315E+00  1.59236094104E+00
 1.55442374092E+00  1.51181915135E+00  1.47121305405E+00  1.44132241837E+00  1.43415269330E+00
 1.47094462921E+00  1.59288161545E+00  1.88211036470E+00  2.49073886410E+00  3.67808219817E+00
 5.83410135453E+00  9.68626933520E+00  1.64442972717E+01  2.82574945336E+01  4.85681287050E+01
 8.23089971950E+01  1.35218233419E+02  2.10951013726E+02  3.04942168938E+02  3.97695391130E+02
 4.57197000030E+02  4.57196946410E+02  3.97695370460E+02  1.58869948622E+02  1.10080614219E+02
 7.16842069640E+01  4.47493482850E+01  2.72546040337E+01  1.64443288374E+01  9.95741878840E+00
 6.11328759886E+00  3.90284575967E+00  2.64513526404E+00  1.98047041197E+00  1.65614114758E+00
 1.51584994277E+00  1.47188860572E+00  1.47843113199E+00  1.51171643132E+00  1.55828347679E+00
 1.60874553930E+00  1.65573410984E+00  1.69340191006E+00  1.71764512290E+00  1.72598575134E+00
 1.71764642122E+00  1.69340376643E+00  1.65573255420E+00  1.60874351118E+00  1.55828812947E+00
 1.51171289681E+00  1.47843534069E+00  1.47188091441E+00  1.51585728659E+00  1.65613110865E+00
 1.98047863526E+00  2.64511904907E+00  3.90287117771E+00  6.11327238303E+00  9.95746063140E+00
 1.64443078671E+01  2.72546054550E+01  4.47493842020E+01  7.16841381780E+01  1.10080661108E+02
 1.58870021921E+02  2.10950997801E+02  2.52573417249E+02  2.68686216255E+02  2.52573536445E+02
 2.10951000166E+02  8.23064431130E+01  5.74843766590E+01  3.81673288364E+01  2.45024952003E+01
 1.54421094177E+01  9.68625289160E+00  6.11328753279E+00  3.98237323277E+00  2.72945492905E+00
 2.04673245421E+00  1.70458250717E+00  1.55344445749E+00  1.50555825827E+00  1.51325803782E+00
 1.55117187509E+00  1.60483020710E+00  1.66423372249E+00  1.72142769401E+00  1.76993374642E+00
 1.80491105079E+00  1.82318626387E+00  1.82318026388E+00  1.80491599985E+00  1.76992589624E+00
 1.72143672296E+00  1.66422738231E+00  1.60483509335E+00  1.55116399146E+00  1.51326742867E+00
 1.50554968434E+00  1.55345706640E+00  1.70457198384E+00  2.04675221166E+00  2.72942685002E+00
 3.98239703597E+00  6.11324983785E+00  9.68627908030E+00  1.54421287120E+01  2.45024477884E+01
 3.81674470200E+01  5.74843807140E+01  8.23064133290E+01  1.10080652329E+02  1.35218212592E+02
 1.50454515285E+02  1.50454522561E+02  1.35218081526E+02  1.10080586423E+02  4.29760494940E+01
 3.03935173123E+01  2.06422203557E+01  1.36588993145E+01  8.92651052260E+00  5.83411886644E+00
 3.90284569217E+00  2.72945491081E+00  2.07011747946E+00  1.73091693819E+00  1.57846262925E+00
 1.53089378268E+00  1.54172031131E+00  1.58544488397E+00  1.64711305960E+00  1.71638708883E+00
 1.78481111584E+00  1.84533626897E+00  1.89241699169E+00  1.92218606036E+00  1.93235756448E+00
 1.92218561846E+00  1.89241829732E+00  1.84533596869E+00  1.78481189381E+00  1.71638189002E+00
 1.64712169784E+00  1.58543693005E+00  1.54173013758E+00  1.53087923462E+00  1.57847432477E+00
 1.73089534047E+00  2.07014604045E+00  2.72943072119E+00  3.90288258133E+00  5.83411146594E+00
 8.92647804110E+00  1.36589839049E+01  2.06421147559E+01  3.03935749955E+01  4.29761319200E+01
 5.74843764080E+01  7.16841273030E+01  8.23089790100E+01  8.62780479640E+01  8.23089940470E+01
 7.16842435230E+01  5.74844134080E+01  2.28523561502E+01  1.64304871914E+01  1.14441105131E+01
 7.82366189840E+00  5.32290320971E+00  3.67807164086E+00  2.64513521246E+00  2.04673243535E+00
 1.73091693304E+00  1.58724168807E+00  1.54448947988E+00  1.56037166179E+00  1.61074474228E+00
 1.68095227060E+00  1.76061261982E+00  1.84095504968E+00  1.91443772708E+00  1.97481568097E+00
 2.01755631515E+00  2.03963570687E+00  2.03965120392E+00  2.01754138335E+00  1.97483177422E+00
 1.91441914547E+00  1.84097431848E+00  1.76059619523E+00  1.68096774051E+00  1.61072527027E+00
 1.56039239913E+00  1.54447303864E+00  1.58726836784E+00  1.73088722381E+00  2.04675588895E+00
 2.64510681206E+00  3.67806728589E+00  5.32296573210E+00  7.82356503020E+00  1.14442555649E+01
 1.64304475848E+01  2.28522639462E+01  3.03935731101E+01  3.81674419568E+01  4.47493751740E+01
 4.85681160560E+01  4.85680846430E+01  4.47493271010E+01  3.81673361479E+01  3.03935088952E+01
 1.24823855441E+01  9.15374371900E+00  6.53273412270E+00  4.66141680845E+00  3.34532635646E+00
 2.49074286802E+00  1.98047037746E+00  1.70458249269E+00  1.57846262397E+00  1.54448947846E+00
 1.56687355161E+00  1.62417399536E+00  1.70283581687E+00  1.79275464283E+00  1.88513893225E+00
 1.97200626026E+00  2.04654352655E+00  2.10343650549E+00  2.13900880623E+00  2.15109737897E+00
 2.13900760172E+00  2.10343634079E+00  2.04654276109E+00  1.97200938350E+00  1.88513599971E+00
 1.79275330721E+00  1.70283937102E+00  1.62417372556E+00  1.56687102132E+00  1.54448338997E+00
 1.57846640487E+00  1.70458807683E+00  1.98046205896E+00  2.49078865988E+00  3.34521734289E+00
 4.66155576357E+00  6.53258400460E+00  9.15374992650E+00  1.24825441324E+01  1.64304468479E+01
 2.06421126645E+01  2.45024438070E+01  2.72545995000E+01  2.82574871293E+01  2.72546217545E+01
 2.45024841993E+01  2.06422468720E+01  1.64305023241E+01  7.05713984990E+00  5.30214670955E+00
 3.94487099060E+00  2.95546192048E+00  2.29096445892E+00  1.88210366172E+00  1.65614112583E+00
 1.55344444765E+00  1.53089377856E+00  1.56037166027E+00  1.62417399495E+00  1.71040041733E+00
 1.80968221243E+00  1.91339685003E+00  2.01338510046E+00  2.10228749966E+00  2.17409820168E+00
 2.22435694083E+00  2.25019304285E+00  2.25019165155E+00  2.22436025195E+00  2.17409599106E+00
 2.10229067935E+00  2.01337921746E+00  1.91340279803E+00  1.80968053596E+00  1.71040003976E+00
 1.62417364807E+00  1.56037703052E+00  1.53089255663E+00  1.55343833526E+00  1.65615264524E+00
 1.88206026198E+00  2.29106183294E+00  2.95536440452E+00  3.94493222309E+00  5.30225539993E+00
 7.05691928660E+00  9.15374966210E+00  1.14442547823E+01  1.36589823399E+01  1.54421262282E+01
 1.64443045706E+01  1.64442935488E+01  1.54421124218E+01  1.36588900559E+01  1.14441109472E+01
 9.15373760870E+00  4.18360289072E+00  3.25990081343E+00  2.56055287343E+00  2.07453849783E+00
 1.76638202562E+00  1.59288617342E+00  1.51584992985E+00  1.50555825207E+00  1.54172030852E+00
 1.61074474112E+00  1.70283581644E+00  1.80968221231E+00  1.92312209068E+00  2.03502530040E+00
 2.13767818126E+00  2.22444016949E+00  2.29005779874E+00  2.33086758245E+00  2.34470108968E+00
 2.33086694829E+00  2.29005678258E+00  2.22444029187E+00  2.13767724324E+00  2.03502854334E+00
 1.92311944347E+00  1.80967993160E+00  1.70283673742E+00  1.61074278783E+00  1.54172194277E+00
 1.50556217067E+00  1.51583943964E+00  1.59292027721E+00  1.76630511139E+00  2.07459353647E+00
 2.56054801208E+00  3.25977305446E+00  4.18374752949E+00  5.30225530612E+00  6.53258375540E+00
 7.82356445140E+00  8.92647708810E+00  9.68627774540E+00  9.95745903950E+00  9.68626766330E+00
 8.92652795350E+00  7.82366592140E+00  6.53273010230E+00  5.30215007388E+00  2.66858875484E+00
 2.20290599576E+00  1.86763713857E+00  1.64856122221E+00  1.52363311515E+00  1.47094032846E+00
 1.47188859810E+00  1.51325803404E+00  1.58544488215E+00  1.68095226977E+00  1.79275464248E+00
 1.91339684991E+00  2.03502530036E+00  2.14981392331E+00  2.25063907530E+00  2.33150687217E+00
 2.38790335960E+00  2.41682998712E+00  2.41683310237E+00  2.38790046648E+00  2.33151131018E+00
 2.25063499169E+00  2.14981951206E+00  2.03501690695E+00  1.91340453756E+00  1.79275632474E+00
 1.68095550471E+00  1.58543693692E+00  1.51325580756E+00  1.47189750907E+00  1.47091631198E+00
 1.52369582001E+00  1.64852953407E+00  1.86762984000E+00  2.20300190731E+00  2.66852185750E+00
 3.25977300973E+00  3.94493210322E+00  4.66155553633E+00  5.32296537308E+00  5.83411097054E+00
 6.11324922868E+00  6.11327170777E+00  5.83410067484E+00  5.32289949077E+00  4.66142012457E+00
 3.94486936013E+00  3.25989882912E+00  1.90915756063E+00  1.68950503548E+00  1.54166644174E+00
 1.45695617719E+00  1.42449568274E+00  1.43415432646E+00  1.47843112776E+00  1.55117187290E+00
 1.64711305852E+00  1.76061261931E+00  1.88513893201E+00  2.01338510036E+00  2.13767818122E+00
 2.25063907529E+00  2.34567557929E+00  2.41744838126E+00  2.46205673455E+00  2.47718702771E+00
 2.46205711603E+00  2.41744807628E+00  2.34567467395E+00  2.25063949406E+00  2.13767649588E+00
 2.01338958434E+00  1.88513150560E+00  1.76060549176E+00  1.64712104865E+00  1.55118376568E+00
 1.47842082296E+00  1.43417252394E+00  1.42443816407E+00  1.45697879928E+00  1.54167013309E+00
 1.68943797758E+00  1.90919360639E+00  2.20300188591E+00  2.56054795444E+00  2.95536429404E+00
 3.34521716539E+00  3.67806703500E+00  3.90288226286E+00  3.98239666915E+00  3.90287079185E+00
 3.67808182543E+00  3.34532510055E+00  2.95546037751E+00  2.56055412129E+00  2.20290684593E+00
 1.55074843833E+00  1.45466685203E+00  1.39974336174E+00  1.38189976325E+00  1.39690251150E+00
 1.44131932699E+00  1.51171642884E+00  1.60483020580E+00  1.71638708814E+00  1.84095504933E+00
 1.97200626010E+00  2.10228749959E+00  2.22444016946E+00  2.33150687216E+00  2.41744838125E+00
 2.47746783578E+00  2.50830537265E+00  2.50830275315E+00  2.47746975237E+00  2.41744589307E+00
 2.33151104862E+00  2.22443504567E+00  2.10229228668E+00  1.97199898992E+00  1.84096266221E+00
 1.71638006071E+00  1.60481447518E+00  1.51171924908E+00  1.44131230114E+00  1.39694931609E+00
 1.38188901924E+00  1.39974149560E+00  1.45472011483E+00  1.55072136850E+00  1.68943796732E+00
 1.86762981223E+00  2.07459348278E+00  2.29106174544E+00  2.49078853361E+00  2.64510664733E+00
 2.72943052503E+00  2.72942663551E+00  2.64511883264E+00  2.49073866179E+00  2.29096203025E+00
 2.07454101569E+00  1.86763623133E+00  1.68950518055E+00  1.39252055930E+00  1.35695534961E+00
 1.34780643585E+00  1.36447437427E+00  1.40606751535E+00  1.47121538451E+00  1.55828347551E+00
 1.66423372179E+00  1.78481111548E+00  1.91443772689E+00  2.04654352644E+00  2.17409820162E+00
 2.29005779871E+00  2.38790335958E+00  2.46205673454E+00  2.50830537265E+00  2.52401479129E+00
 2.50830559469E+00  2.46205787621E+00  2.38790218758E+00  2.29005718104E+00  2.17410300068E+00
 2.04654480628E+00  1.91445215834E+00  1.78482214468E+00  1.66423274672E+00  1.55826987744E+00
 1.47122531907E+00  1.40603671152E+00  1.36447957898E+00  1.34779669101E+00  1.35691777900E+00
 1.39253561441E+00  1.45472010989E+00  1.54167011969E+00  1.64852950797E+00  1.76630506832E+00
 1.88206019874E+00  1.98046197462E+00  2.04675578580E+00  2.07014592400E+00  2.04675208977E+00
 1.98047851654E+00  1.88211025666E+00  1.76638346235E+00  1.64855845495E+00  1.54166666542E+00
 1.45466632635E+00  1.33166262944E+00  1.32575227446E+00  1.34048503940E+00  1.37643933106E+00
 1.43371811634E+00  1.51181866793E+00  1.60874553849E+00  1.72142769356E+00  1.84533626871E+00
 1.97481568083E+00  2.10343650541E+00  2.22435694078E+00  2.33086758241E+00  2.41682998709E+00
 2.47718702769E+00  2.50830275314E+00  2.50830559468E+00  2.47718334438E+00  2.41683242476E+00
 2.33086525427E+00  2.22436787721E+00  2.10343812836E+00  1.97483576635E+00  1.84533439074E+00
 1.72145388495E+00  1.60877871180E+00  1.51179331406E+00  1.43372347677E+00  1.37644395103E+00
 1.34049165924E+00  1.32578358591E+00  1.33165585038E+00  1.35691777662E+00  1.39974148913E+00
 1.45697878658E+00  1.52369579885E+00  1.59292024569E+00  1.65615260239E+00  1.70458802315E+00
 1.73088716138E+00  1.73089527290E+00  1.70457191552E+00  1.65613104397E+00  1.59288155795E+00
 1.52363166017E+00  1.45695986150E+00  1.39974299092E+00  1.35695637533E+00  1.31847502916E+00
 1.32803320085E+00  1.35585656209E+00  1.40295813992E+00  1.46950734497E+00  1.55442589382E+00
 1.65573410948E+00  1.76993374621E+00  1.89241699158E+00  2.01755631507E+00  2.13900880616E+00
 2.25019304280E+00  2.34470108964E+00  2.41683310232E+00  2.46205711599E+00  2.47746975234E+00
 2.46205787619E+00  2.41683242475E+00  2.34470481798E+00  2.25019768903E+00  2.13899924568E+00
 2.01754332730E+00  1.89239680768E+00  1.76994787174E+00  1.65575964078E+00  1.55444518662E+00
 1.46945672264E+00  1.40295477788E+00  1.35589321676E+00  1.32800726051E+00  1.31847614267E+00
 1.32578358476E+00  1.34779668786E+00  1.38188901305E+00  1.42443815368E+00  1.47091629631E+00
 1.51583941799E+00  1.55343830756E+00  1.57846637187E+00  1.58726833115E+00  1.57847428654E+00
 1.55345702898E+00  1.51585725207E+00  1.47094459907E+00  1.42449606011E+00  1.38189627491E+00
 1.34780649594E+00  1.32575107844E+00  1.32957592686E+00  1.34705791596E+00  1.38192537663E+00
 1.43476818083E+00  1.50528828497E+00  1.59235697876E+00  1.69340190975E+00  1.80491105059E+00
 1.92218606022E+00  2.03963570676E+00  2.15109737890E+00  2.25019165148E+00  2.33086694822E+00
 2.38790046641E+00  2.41744807622E+00  2.41744589301E+00  2.38790218754E+00  2.33086525424E+00
 2.25019768900E+00  2.15108794708E+00  2.03963134940E+00  1.92215150914E+00  1.80490729751E+00
 1.69339704543E+00  1.59237242672E+00  1.50538418373E+00  1.43475207505E+00  1.38187917808E+00
 1.34708079958E+00  1.32952917964E+00  1.32800725996E+00  1.34049165773E+00  1.36447957598E+00
 1.39694931099E+00  1.43417251615E+00  1.47189749817E+00  1.50556215647E+00  1.53089253936E+00
 1.54448337028E+00  1.54447301748E+00  1.53087921319E+00  1.50554966384E+00  1.47188089585E+00
 1.43415267738E+00  1.39690084029E+00  1.36447929417E+00  1.34048384874E+00  1.32803566322E+00
 1.35226465597E+00  1.37312549929E+00  1.41053542370E+00  1.46479023958E+00  1.53532591514E+00
 1.62044156000E+00  1.71764512279E+00  1.82318626377E+00  1.93235756438E+00  2.03965120381E+00
 2.13900760160E+00  2.22436025183E+00  2.29005678246E+00  2.33151131006E+00  2.34567467384E+00
 2.33151104852E+00  2.29005718096E+00  2.22436787713E+00  2.13899924562E+00  2.03963134937E+00
 1.93231875798E+00  1.82316896365E+00  1.71760474556E+00  1.62045679081E+00  1.53536600181E+00
 1.46479775026E+00  1.41045310983E+00  1.37310914214E+00  1.35235435611E+00  1.34708079930E+00
 1.35589321600E+00  1.37644394954E+00  1.40603670899E+00  1.44131229729E+00  1.47842081747E+00
 1.51325580030E+00  1.54172193378E+00  1.56037702004E+00  1.56687100979E+00  1.56039238717E+00
 1.54173012583E+00  1.51326741773E+00  1.47843533099E+00  1.44132241014E+00  1.40606722055E+00
 1.37643610982E+00  1.35585598959E+00  1.34705604921E+00  1.37839439801E+00  1.39894569247E+00
 1.43544802156E+00  1.48776608771E+00  1.55494944304E+00  1.63532744032E+00  1.72598575110E+00
 1.82318026367E+00  1.92218561826E+00  2.01754138314E+00  2.10343634059E+00  2.17409599085E+00
 2.22444029165E+00  2.25063499149E+00  2.25063949386E+00  2.22443504550E+00  2.17410300053E+00
 2.10343812822E+00  2.01754332718E+00  1.92215150906E+00  1.82316896361E+00  1.72594801914E+00
 1.63532783360E+00  1.55506032024E+00  1.48776551224E+00  1.43541900101E+00  1.39894770712E+00
 1.37845195032E+00  1.37310914201E+00  1.38187917770E+00  1.40295477715E+00  1.43372347550E+00
 1.47122531710E+00  1.51171924629E+00  1.55118376199E+00  1.58543693227E+00  1.61074278229E+00
 1.62417364186E+00  1.62417371893E+00  1.61072526355E+00  1.58543692354E+00  1.55116398548E+00
 1.51171289155E+00  1.47121304965E+00  1.43371798595E+00  1.40296203227E+00  1.38192618883E+00
 1.37312656397E+00  1.40152161589E+00  1.41919851748E+00  1.45219108688E+00  1.50011854910E+00
 1.56187786411E+00  1.63532867660E+00  1.71764642104E+00  1.80491599963E+00  1.89241829705E+00
 1.97483177390E+00  2.04654276073E+00  2.10229067898E+00  2.13767724286E+00  2.14981951170E+00
 2.13767649554E+00  2.10229228639E+00  2.04654480603E+00  1.97483576611E+00  1.89239680750E+00
 1.80490729739E+00  1.71760474547E+00  1.63532783357E+00  1.56190374497E+00  1.50012673610E+00
 1.45220216025E+00  1.41919466711E+00  1.40154192572E+00  1.39894770706E+00  1.41045310966E+00
 1.43475207470E+00  1.46945672207E+00  1.51179331312E+00  1.55826987608E+00  1.60481447327E+00
 1.64712104624E+00  1.68095550180E+00  1.70283673408E+00  1.71040003612E+00  1.70283936725E+00
 1.68096773680E+00  1.64712169437E+00  1.60483509024E+00  1.55828812682E+00  1.51181914913E+00
 1.46950872450E+00  1.43476227440E+00  1.41053718950E+00  1.39894291358E+00  1.41727122392E+00
 1.43020961035E+00  1.45805939776E+00  1.50012111002E+00  1.55495149479E+00  1.62043716276E+00
 1.69340376595E+00  1.76992589571E+00  1.84533596810E+00  1.91441914484E+00  1.97200938285E+00
 2.01337921679E+00  2.03502854267E+00  2.03501690633E+00  2.01338958377E+00  1.97199898944E+00
 1.91445215795E+00  1.84533439038E+00  1.76994787148E+00  1.69339704522E+00  1.62045679070E+00
 1.55506032018E+00  1.50012673608E+00  1.45809254223E+00  1.43021492696E+00  1.41719027309E+00
 1.41919466708E+00  1.43541900095E+00  1.46479775009E+00  1.50538418346E+00  1.55444518616E+00
 1.60877871113E+00  1.66423274580E+00  1.71638005947E+00  1.76060549023E+00  1.79275632296E+00
 1.80967992963E+00  1.80968053387E+00  1.79275330510E+00  1.76059619316E+00  1.71638188808E+00
 1.66422738057E+00  1.60874350966E+00  1.55442373968E+00  1.50528966550E+00  1.46479258801E+00
 1.43544914812E+00  1.41919980783E+00  1.42276049684E+00  1.43021227414E+00  1.45218754048E+00
 1.48776505287E+00  1.53532365376E+00  1.59236094045E+00  1.65573255351E+00  1.72143672212E+00
 1.78481189281E+00  1.84097431738E+00  1.88513599852E+00  1.91340279683E+00  1.92311944232E+00
 1.91340453650E+00  1.88513150464E+00  1.84096266144E+00  1.78482214406E+00  1.72145388447E+00
 1.65575964040E+00  1.59237242647E+00  1.53536600168E+00  1.48776551215E+00  1.45220216023E+00
 1.43021492694E+00  1.42270654174E+00  1.43021492694E+00  1.45220216023E+00  1.48776551215E+00
 1.53536600168E+00  1.59237242647E+00  1.65575964040E+00  1.72145388447E+00  1.78482214406E+00
 1.84096266144E+00  1.88513150464E+00  1.91340453650E+00  1.92311944232E+00  1.91340279683E+00
 1.88513599852E+00  1.84097431738E+00  1.78481189281E+00  1.72143672212E+00  1.65573255351E+00
 1.59236094045E+00  1.53532365376E+00  1.48776505287E+00  1.45218754048E+00  1.43021227414E+00
 1.41727122392E+00  1.41919980783E+00  1.43544914812E+00  1.46479258801E+00  1.50528966550E+00
 1.55442373968E+00  1.60874350966E+00  1.66422738057E+00  1.71638188808E+00  1.76059619316E+00
 1.79275330510E+00  1.80968053387E+00  1.80967992963E+00  1.79275632296E+00  1.76060549023E+00
 1.71638005947E+00  1.66423274580E+00  1.60877871113E+00  1.55444518616E+00  1.50538418346E+00
 1.46479775009E+00  1.43541900095E+00  1.41919466708E+00  1.41719027309E+00  1.43021492696E+00
 1.45809254223E+00  1.50012673608E+00  1.55506032018E+00  1.62045679070E+00  1.69339704522E+00
 1.76994787148E+00  1.84533439038E+00  1.91445215795E+00  1.97199898944E+00  2.01338958377E+00
 2.03501690633E+00  2.03502854267E+00  2.01337921679E+00  1.97200938285E+00  1.91441914484E+00
 1.84533596810E+00  1.76992589571E+00  1.69340376595E+00  1.62043716276E+00  1.55495149479E+00
 1.50012111002E+00  1.45805939776E+00  1.43020961035E+00  1.40152161589E+00  1.39894291358E+00
 1.41053718950E+00  1.43476227440E+00  1.46950872450E+00  1.51181914913E+00  1.55828812682E+00
 1.60483509024E+00  1.64712169437E+00  1.68096773680E+00  1.70283936725E+00  1.71040003612E+00
 1.70283673408E+00  1.68095550180E+00  1.64712104624E+00  1.60481447327E+00  1.55826987608E+00
 1.51179331312E+00  1.46945672207E+00  1.43475207470E+00  1.41045310966E+00  1.39894770706E+00
 1.40154192572E+00  1.41919466711E+00  1.45220216025E+00  1.50012673610E+00  1.56190374497E+00
 1.63532783357E+00  1.71760474547E+00  1.80490729739E+00  1.89239680750E+00  1.97483576611E+00
 2.04654480603E+00  2.10229228639E+00  2.13767649554E+00  2.14981951170E+00  2.13767724286E+00
 2.10229067898E+00  2.04654276073E+00  1.97483177390E+00  1.89241829705E+00  1.80491599963E+00
 1.71764642104E+00  1.63532867660E+00  1.56187786411E+00  1.50011854910E+00  1.45219108688E+00
 1.41919851748E+00  1.37839439801E+00  1.37312656397E+00  1.38192618883E+00  1.40296203227E+00
 1.43371798595E+00  1.47121304965E+00  1.51171289155E+00  1.55116398548E+00  1.58543692355E+00
 1.61072526355E+00  1.62417371893E+00  1.62417364186E+00  1.61074278229E+00  1.58543693227E+00
 1.55118376199E+00  1.51171924629E+00  1.47122531710E+00  1.43372347550E+00  1.40295477715E+00
 1.38187917770E+00  1.37310914201E+00  1.37845195032E+00  1.39894770712E+00  1.43541900101E+00
 1.48776551224E+00  1.55506032024E+00  1.63532783360E+00  1.72594801914E+00  1.82316896361E+00
 1.92215150906E+00  2.01754332718E+00  2.10343812822E+00  2.17410300053E+00  2.22443504550E+00
 2.25063949386E+00  2.25063499149E+00  2.22444029165E+00  2.17409599085E+00  2.10343634059E+00
 2.01754138314E+00  1.92218561825E+00  1.82318026367E+00  1.72598575110E+00  1.63532744032E+00
 1.55494944304E+00  1.48776608771E+00  1.43544802156E+00  1.39894569247E+00  1.35226465597E+00
 1.34705604921E+00  1.35585598959E+00  1.37643610982E+00  1.40606722055E+00  1.44132241014E+00
 1.47843533099E+00  1.51326741773E+00  1.54173012583E+00  1.56039238717E+00  1.56687100979E+00
 1.56037702004E+00  1.54172193378E+00  1.51325580030E+00  1.47842081747E+00  1.44131229729E+00
 1.40603670899E+00  1.37644394954E+00  1.35589321600E+00  1.34708079930E+00  1.35235435611E+00
 1.37310914214E+00  1.41045310983E+00  1.46479775026E+00  1.53536600181E+00  1.62045679081E+00
 1.71760474556E+00  1.82316896365E+00  1.93231875798E+00  2.03963134937E+00  2.13899924562E+00
 2.22436787713E+00  2.29005718096E+00  2.33151104852E+00  2.34567467384E+00  2.33151131006E+00
 2.29005678246E+00  2.22436025183E+00  2.13900760160E+00  2.03965120381E+00  1.93235756439E+00
 1.82318626377E+00  1.71764512279E+00  1.62044156000E+00  1.53532591514E+00  1.46479023958E+00
 1.41053542370E+00  1.37312549929E+00  1.32957592686E+00  1.32803566322E+00  1.34048384874E+00
 1.36447929417E+00  1.39690084029E+00  1.43415267738E+00  1.47188089585E+00  1.50554966384E+00
 1.53087921320E+00  1.54447301748E+00  1.54448337028E+00  1.53089253936E+00  1.50556215647E+00
 1.47189749817E+00  1.43417251615E+00  1.39694931099E+00  1.36447957598E+00  1.34049165773E+00
 1.32800725996E+00  1.32952917964E+00  1.34708079958E+00  1.38187917808E+00  1.43475207505E+00
 1.50538418373E+00  1.59237242672E+00  1.69339704543E+00  1.80490729751E+00  1.92215150914E+00
 2.03963134940E+00  2.15108794708E+00  2.25019768900E+00  2.33086525424E+00  2.38790218754E+00
 2.41744589301E+00  2.41744807622E+00  2.38790046641E+00  2.33086694822E+00  2.25019165148E+00
 2.15109737890E+00  2.03963570676E+00  1.92218606022E+00  1.80491105059E+00  1.69340190975E+00
 1.59235697876E+00  1.50528828497E+00  1.43476818083E+00  1.38192537663E+00  1.34705791596E+00
 1.31847502916E+00  1.32575107844E+00  1.34780649594E+00  1.38189627491E+00  1.42449606011E+00
 1.47094459907E+00  1.51585725207E+00  1.55345702898E+00  1.57847428654E+00  1.58726833115E+00
 1.57846637187E+00  1.55343830756E+00  1.51583941799E+00  1.47091629631E+00  1.42443815368E+00
 1.38188901305E+00  1.34779668786E+00  1.32578358476E+00  1.31847614267E+00  1.32800726051E+00
 1.35589321676E+00  1.40295477788E+00  1.46945672264E+00  1.55444518662E+00  1.65575964078E+00
 1.76994787174E+00  1.89239680768E+00  2.01754332730E+00  2.13899924568E+00  2.25019768903E+00
 2.34470481798E+00  2.41683242475E+00  2.46205787619E+00  2.47746975234E+00  2.46205711599E+00
 2.41683310232E+00  2.34470108964E+00  2.25019304280E+00  2.13900880616E+00  2.01755631507E+00
 1.89241699157E+00  1.76993374621E+00  1.65573410948E+00  1.55442589382E+00  1.46950734497E+00
 1.40295813992E+00  1.35585656209E+00  1.32803320085E+00  1.33166262944E+00  1.35695637533E+00
 1.39974299092E+00  1.45695986150E+00  1.52363166017E+00  1.59288155795E+00  1.65613104397E+00
 1.70457191552E+00  1.73089527290E+00  1.73088716138E+00  1.70458802315E+00  1.65615260239E+00
 1.59292024569E+00  1.52369579885E+00  1.45697878658E+00  1.39974148913E+00  1.35691777662E+00
 1.33165585038E+00  1.32578358591E+00  1.34049165924E+00  1.37644395103E+00  1.43372347677E+00
 1.51179331406E+00  1.60877871180E+00  1.72145388495E+00  1.84533439074E+00  1.97483576635E+00
 2.10343812836E+00  2.22436787721E+00  2.33086525427E+00  2.41683242476E+00  2.47718334438E+00
 2.50830559468E+00  2.50830275314E+00  2.47718702769E+00  2.41682998709E+00  2.33086758241E+00
 2.22435694078E+00  2.10343650541E+00  1.97481568083E+00  1.84533626872E+00  1.72142769356E+00
 1.60874553849E+00  1.51181866793E+00  1.43371811634E+00  1.37643933106E+00  1.34048503940E+00
 1.32575227446E+00  1.39252055930E+00  1.45466632635E+00  1.54166666542E+00  1.64855845495E+00
 1.76638346235E+00  1.88211025666E+00  1.98047851654E+00  2.04675208977E+00  2.07014592400E+00
 2.04675578580E+00  1.98046197462E+00  1.88206019874E+00  1.76630506832E+00  1.64852950797E+00
 1.54167011969E+00  1.45472010989E+00  1.39253561441E+00  1.35691777900E+00  1.34779669101E+00
 1.36447957898E+00  1.40603671152E+00  1.47122531907E+00  1.55826987744E+00  1.66423274672E+00