   2   2   1   0
  0.2254249E+02  0.3994990E-09  0.3994990E-09  0.3994990E-09  0.5000000E-15
  1.000000000000000E-004
  CAR 
 unknown system                          
     21.60116160    -23.66993032  301     -0.76089747      1.00000000
    -23.670  0.0000E+00  0.0000E+00  0.0000E+00  0.0000E+00
    -23.519  0.0000E+00  0.0000E+00  0.0000E+00  0.0000E+00
    -23.368  0.0000E+00  0.0000E+00  0.0000E+00  0.0000E+00
    -23.217  0.0000E+00  0.0000E+00  0.0000E+00  0.0000E+00
    -23.066  0.0000E+00  0.0000E+00  0.0000E+00  0.0000E+00
    -22.915  0.0000E+00  0.0000E+00  0.0000E+00  0.0000E+00
    -22.765  0.0000E+00  0.0000E+00  0.0000E+00  0.0000E+00
    -22.614  0.0000E+00  0.0000E+00  0.0000E+00  0.0000E+00
    -22.463  0.0000E+00  0.0000E+00  0.0000E+00  0.0000E+00
    -22.312  0.0000E+00  0.0000E+00  0.0000E+00  0.0000E+00
    -22.161  0.0000E+00  0.0000E+00  0.0000E+00  0.0000E+00
    -22.010  0.0000E+00  0.0000E+00  0.0000E+00  0.0000E+00
    -21.859  0.0000E+00  0.0000E+00  0.0000E+00  0.0000E+00
    -21.708  0.0000E+00  0.0000E+00  0.0000E+00  0.0000E+00
    -21.557  0.1988E+02  0.1988E+02  0.3000E+01  0.3000E+01
    -21.406  0.0000E+00  0.0000E+00  0.3000E+01  0.3000E+01
    -21.255  0.0000E+00  0.0000E+00  0.3000E+01  0.3000E+01
    -21.105  0.0000E+00  0.0000E+00  0.3000E+01  0.3000E+01
    -20.954  0.0000E+00  0.0000E+00  0.3000E+01  0.3000E+01
    -20.803  0.0000E+00  0.0000E+00  0.3000E+01  0.3000E+01
    -20.652  0.0000E+00  0.0000E+00  0.3000E+01  0.3000E+01
    -20.501  0.0000E+00  0.0000E+00  0.3000E+01  0.3000E+01
    -20.350  0.0000E+00  0.0000E+00  0.3000E+01  0.3000E+01
    -20.199  0.0000E+00  0.0000E+00  0.3000E+01  0.3000E+01
    -20.048  0.0000E+00  0.0000E+00  0.3000E+01  0.3000E+01
    -19.897  0.0000E+00  0.0000E+00  0.3000E+01  0.3000E+01
    -19.746  0.0000E+00  0.0000E+00  0.3000E+01  0.3000E+01
    -19.596  0.0000E+00  0.0000E+00  0.3000E+01  0.3000E+01
    -19.445  0.0000E+00  0.0000E+00  0.3000E+01  0.3000E+01
    -19.294  0.0000E+00  0.0000E+00  0.3000E+01  0.3000E+01
    -19.143  0.0000E+00  0.0000E+00  0.3000E+01  0.3000E+01
    -18.992  0.0000E+00  0.0000E+00  0.3000E+01  0.3000E+01
    -18.841  0.0000E+00  0.0000E+00  0.3000E+01  0.3000E+01
    -18.690  0.0000E+00  0.0000E+00  0.3000E+01  0.3000E+01
    -18.539  0.0000E+00  0.0000E+00  0.3000E+01  0.3000E+01
    -18.388  0.0000E+00  0.0000E+00  0.3000E+01  0.3000E+01
    -18.237  0.0000E+00  0.0000E+00  0.3000E+01  0.3000E+01
    -18.086  0.0000E+00  0.0000E+00  0.3000E+01  0.3000E+01
    -17.936  0.0000E+00  0.0000E+00  0.3000E+01  0.3000E+01
    -17.785  0.0000E+00  0.0000E+00  0.3000E+01  0.3000E+01
    -17.634  0.0000E+00  0.0000E+00  0.3000E+01  0.3000E+01
    -17.483  0.0000E+00  0.0000E+00  0.3000E+01  0.3000E+01
    -17.332  0.0000E+00  0.0000E+00  0.3000E+01  0.3000E+01
    -17.181  0.0000E+00  0.0000E+00  0.3000E+01  0.3000E+01
    -17.030  0.0000E+00  0.0000E+00  0.3000E+01  0.3000E+01
    -16.879  0.0000E+00  0.0000E+00  0.3000E+01  0.3000E+01
    -16.728  0.0000E+00  0.0000E+00  0.3000E+01  0.3000E+01
    -16.577  0.0000E+00  0.0000E+00  0.3000E+01  0.3000E+01
    -16.427  0.0000E+00  0.0000E+00  0.3000E+01  0.3000E+01
    -16.276  0.0000E+00  0.0000E+00  0.3000E+01  0.3000E+01
    -16.125  0.0000E+00  0.0000E+00  0.3000E+01  0.3000E+01
    -15.974  0.0000E+00  0.0000E+00  0.3000E+01  0.3000E+01
    -15.823  0.0000E+00  0.0000E+00  0.3000E+01  0.3000E+01
    -15.672  0.0000E+00  0.0000E+00  0.3000E+01  0.3000E+01
    -15.521  0.0000E+00  0.0000E+00  0.3000E+01  0.3000E+01
    -15.370  0.0000E+00  0.0000E+00  0.3000E+01  0.3000E+01
    -15.219  0.0000E+00  0.0000E+00  0.3000E+01  0.3000E+01
    -15.068  0.0000E+00  0.0000E+00  0.3000E+01  0.3000E+01
    -14.918  0.0000E+00  0.0000E+00  0.3000E+01  0.3000E+01
    -14.767  0.0000E+00  0.0000E+00  0.3000E+01  0.3000E+01
    -14.616  0.0000E+00  0.0000E+00  0.3000E+01  0.3000E+01
    -14.465  0.0000E+00  0.0000E+00  0.3000E+01  0.3000E+01
    -14.314  0.0000E+00  0.0000E+00  0.3000E+01  0.3000E+01
    -14.163  0.0000E+00  0.0000E+00  0.3000E+01  0.3000E+01
    -14.012  0.0000E+00  0.0000E+00  0.3000E+01  0.3000E+01
    -13.861  0.0000E+00  0.0000E+00  0.3000E+01  0.3000E+01
    -13.710  0.0000E+00  0.0000E+00  0.3000E+01  0.3000E+01
    -13.559  0.0000E+00  0.0000E+00  0.3000E+01  0.3000E+01
    -13.408  0.3628E-02  0.3049E-02  0.3000E+01  0.3000E+01
    -13.258  0.9975E+00  0.9942E+00  0.3070E+01  0.3070E+01
    -13.107  0.4506E+01  0.4478E+01  0.3359E+01  0.3358E+01
    -12.956  0.2531E+01  0.2531E+01  0.4000E+01  0.4000E+01
    -12.805  0.0000E+00  0.0000E+00  0.4000E+01  0.4000E+01
    -12.654  0.0000E+00  0.0000E+00  0.4000E+01  0.4000E+01
    -12.503  0.0000E+00  0.0000E+00  0.4000E+01  0.4000E+01
    -12.352  0.0000E+00  0.0000E+00  0.4000E+01  0.4000E+01
    -12.201  0.0000E+00  0.0000E+00  0.4000E+01  0.4000E+01
    -12.050  0.0000E+00  0.0000E+00  0.4000E+01  0.4000E+01
    -11.899  0.0000E+00  0.0000E+00  0.4000E+01  0.4000E+01
    -11.749  0.0000E+00  0.0000E+00  0.4000E+01  0.4000E+01
    -11.598  0.0000E+00  0.0000E+00  0.4000E+01  0.4000E+01
    -11.447  0.0000E+00  0.0000E+00  0.4000E+01  0.4000E+01
    -11.296  0.0000E+00  0.0000E+00  0.4000E+01  0.4000E+01
    -11.145  0.0000E+00  0.0000E+00  0.4000E+01  0.4000E+01
    -10.994  0.0000E+00  0.0000E+00  0.4000E+01  0.4000E+01
    -10.843  0.0000E+00  0.0000E+00  0.4000E+01  0.4000E+01
    -10.692  0.0000E+00  0.0000E+00  0.4000E+01  0.4000E+01
    -10.541  0.0000E+00  0.0000E+00  0.4000E+01  0.4000E+01
    -10.390  0.0000E+00  0.0000E+00  0.4000E+01  0.4000E+01
    -10.240  0.0000E+00  0.0000E+00  0.4000E+01  0.4000E+01
    -10.089  0.0000E+00  0.0000E+00  0.4000E+01  0.4000E+01
     -9.938  0.0000E+00  0.0000E+00  0.4000E+01  0.4000E+01
     -9.787  0.0000E+00  0.0000E+00  0.4000E+01  0.4000E+01
     -9.636  0.0000E+00  0.0000E+00  0.4000E+01  0.4000E+01
     -9.485  0.0000E+00  0.0000E+00  0.4000E+01  0.4000E+01
     -9.334  0.0000E+00  0.0000E+00  0.4000E+01  0.4000E+01
     -9.183  0.0000E+00  0.0000E+00  0.4000E+01  0.4000E+01
     -9.032  0.0000E+00  0.0000E+00  0.4000E+01  0.4000E+01
     -8.881  0.0000E+00  0.0000E+00  0.4000E+01  0.4000E+01
     -8.730  0.0000E+00  0.0000E+00  0.4000E+01  0.4000E+01
     -8.580  0.0000E+00  0.0000E+00  0.4000E+01  0.4000E+01
     -8.429  0.0000E+00  0.0000E+00  0.4000E+01  0.4000E+01
     -8.278  0.0000E+00  0.0000E+00  0.4000E+01  0.4000E+01
     -8.127  0.0000E+00  0.0000E+00  0.4000E+01  0.4000E+01
     -7.976  0.0000E+00  0.0000E+00  0.4000E+01  0.4000E+01
     -7.825  0.0000E+00  0.0000E+00  0.4000E+01  0.4000E+01
     -7.674  0.0000E+00  0.0000E+00  0.4000E+01  0.4000E+01
     -7.523  0.0000E+00  0.0000E+00  0.4000E+01  0.4000E+01
     -7.372  0.0000E+00  0.0000E+00  0.4000E+01  0.4000E+01
     -7.221  0.0000E+00  0.0000E+00  0.4000E+01  0.4000E+01
     -7.071  0.0000E+00  0.0000E+00  0.4000E+01  0.4000E+01
     -6.920  0.0000E+00  0.0000E+00  0.4000E+01  0.4000E+01
     -6.769  0.0000E+00  0.0000E+00  0.4000E+01  0.4000E+01
     -6.618  0.0000E+00  0.0000E+00  0.4000E+01  0.4000E+01
     -6.467  0.0000E+00  0.0000E+00  0.4000E+01  0.4000E+01
     -6.316  0.0000E+00  0.0000E+00  0.4000E+01  0.4000E+01
     -6.165  0.0000E+00  0.0000E+00  0.4000E+01  0.4000E+01
     -6.014  0.0000E+00  0.0000E+00  0.4000E+01  0.4000E+01
     -5.863  0.0000E+00  0.0000E+00  0.4000E+01  0.4000E+01
     -5.712  0.0000E+00  0.0000E+00  0.4000E+01  0.4000E+01
     -5.561  0.0000E+00  0.0000E+00  0.4000E+01  0.4000E+01
     -5.411  0.0000E+00  0.0000E+00  0.4000E+01  0.4000E+01
     -5.260  0.0000E+00  0.0000E+00  0.4000E+01  0.4000E+01
     -5.109  0.0000E+00  0.0000E+00  0.4000E+01  0.4000E+01
     -4.958  0.0000E+00  0.0000E+00  0.4000E+01  0.4000E+01
     -4.807  0.0000E+00  0.0000E+00  0.4000E+01  0.4000E+01
     -4.656  0.0000E+00  0.0000E+00  0.4000E+01  0.4000E+01
     -4.505  0.0000E+00  0.0000E+00  0.4000E+01  0.4000E+01
     -4.354  0.0000E+00  0.0000E+00  0.4000E+01  0.4000E+01
     -4.203  0.0000E+00  0.0000E+00  0.4000E+01  0.4000E+01
     -4.052  0.0000E+00  0.0000E+00  0.4000E+01  0.4000E+01
     -3.902  0.0000E+00  0.0000E+00  0.4000E+01  0.4000E+01
     -3.751  0.0000E+00  0.0000E+00  0.4000E+01  0.4000E+01
     -3.600  0.0000E+00  0.0000E+00  0.4000E+01  0.4000E+01
     -3.449  0.0000E+00  0.0000E+00  0.4000E+01  0.4000E+01
     -3.298  0.0000E+00  0.0000E+00  0.4000E+01  0.4000E+01
     -3.147  0.0000E+00  0.0000E+00  0.4000E+01  0.4000E+01
     -2.996  0.0000E+00  0.0000E+00  0.4000E+01  0.4000E+01
     -2.845  0.0000E+00  0.0000E+00  0.4000E+01  0.4000E+01
     -2.694  0.0000E+00  0.0000E+00  0.4000E+01  0.4000E+01
     -2.543  0.4279E+00  0.4310E+00  0.4017E+01  0.4016E+01
     -2.393  0.8520E+00  0.8497E+00  0.4107E+01  0.4107E+01
     -2.242  0.4175E+01  0.4314E+01  0.4455E+01  0.4453E+01
     -2.091  0.1070E+01  0.1074E+01  0.4767E+01  0.4767E+01
     -1.940  0.5407E+00  0.5404E+00  0.4868E+01  0.4868E+01
     -1.789  0.9019E+00  0.8986E+00  0.4965E+01  0.4965E+01
     -1.638  0.1210E+01  0.1209E+01  0.5134E+01  0.5133E+01
     -1.487  0.1475E+01  0.1475E+01  0.5341E+01  0.5340E+01
     -1.336  0.3100E+01  0.3084E+01  0.5624E+01  0.5622E+01
     -1.185  0.3512E+01  0.3511E+01  0.6106E+01  0.6104E+01
     -1.034  0.3281E+01  0.3294E+01  0.6628E+01  0.6626E+01
     -0.883  0.1003E+01  0.1009E+01  0.6931E+01  0.6930E+01
     -0.733  0.2318E+00  0.2318E+00  0.7000E+01  0.7000E+01
     -0.582  0.0000E+00  0.0000E+00  0.7000E+01  0.7000E+01
     -0.431  0.0000E+00  0.0000E+00  0.7000E+01  0.7000E+01
     -0.280  0.0000E+00  0.0000E+00  0.7000E+01  0.7000E+01
     -0.129  0.0000E+00  0.0000E+00  0.7000E+01  0.7000E+01
      0.022  0.0000E+00  0.0000E+00  0.7000E+01  0.7000E+01
      0.173  0.0000E+00  0.0000E+00  0.7000E+01  0.7000E+01
      0.324  0.0000E+00  0.0000E+00  0.7000E+01  0.7000E+01
      0.475  0.0000E+00  0.0000E+00  0.7000E+01  0.7000E+01
      0.626  0.0000E+00  0.0000E+00  0.7000E+01  0.7000E+01
      0.776  0.0000E+00  0.0000E+00  0.7000E+01  0.7000E+01
      0.927  0.0000E+00  0.0000E+00  0.7000E+01  0.7000E+01
      1.078  0.0000E+00  0.0000E+00  0.7000E+01  0.7000E+01
      1.229  0.0000E+00  0.0000E+00  0.7000E+01  0.7000E+01
      1.380  0.0000E+00  0.0000E+00  0.7000E+01  0.7000E+01
      1.531  0.0000E+00  0.0000E+00  0.7000E+01  0.7000E+01
      1.682  0.0000E+00  0.0000E+00  0.7000E+01  0.7000E+01
      1.833  0.0000E+00  0.0000E+00  0.7000E+01  0.7000E+01
      1.984  0.0000E+00  0.0000E+00  0.7000E+01  0.7000E+01
      2.135  0.0000E+00  0.0000E+00  0.7000E+01  0.7000E+01
      2.285  0.0000E+00  0.0000E+00  0.7000E+01  0.7000E+01
      2.436  0.0000E+00  0.0000E+00  0.7000E+01  0.7000E+01
      2.587  0.0000E+00  0.0000E+00  0.7000E+01  0.7000E+01
      2.738  0.0000E+00  0.0000E+00  0.7000E+01  0.7000E+01
      2.889  0.0000E+00  0.0000E+00  0.7000E+01  0.7000E+01
      3.040  0.0000E+00  0.0000E+00  0.7000E+01  0.7000E+01
      3.191  0.0000E+00  0.0000E+00  0.7000E+01  0.7000E+01
      3.342  0.0000E+00  0.0000E+00  0.7000E+01  0.7000E+01
      3.493  0.0000E+00  0.0000E+00  0.7000E+01  0.7000E+01
      3.644  0.0000E+00  0.0000E+00  0.7000E+01  0.7000E+01
      3.795  0.0000E+00  0.0000E+00  0.7000E+01  0.7000E+01
      3.945  0.0000E+00  0.0000E+00  0.7000E+01  0.7000E+01
      4.096  0.0000E+00  0.0000E+00  0.7000E+01  0.7000E+01
      4.247  0.0000E+00  0.0000E+00  0.7000E+01  0.7000E+01
      4.398  0.7375E-03  0.7300E-03  0.7000E+01  0.7000E+01
      4.549  0.5884E-02  0.5863E-02  0.7000E+01  0.7000E+01
      4.700  0.1594E-01  0.1591E-01  0.7002E+01  0.7002E+01
      4.851  0.3091E-01  0.3086E-01  0.7006E+01  0.7006E+01
      5.002  0.4320E-01  0.4319E-01  0.7011E+01  0.7011E+01
      5.153  0.5036E-01  0.5033E-01  0.7018E+01  0.7018E+01
      5.304  0.6100E-01  0.6097E-01  0.7027E+01  0.7027E+01
      5.454  0.7257E-01  0.7253E-01  0.7037E+01  0.7037E+01
      5.605  0.8506E-01  0.8503E-01  0.7049E+01  0.7049E+01
      5.756  0.9849E-01  0.9845E-01  0.7063E+01  0.7062E+01
      5.907  0.1147E+00  0.1146E+00  0.7079E+01  0.7079E+01
      6.058  0.1357E+00  0.1356E+00  0.7097E+01  0.7097E+01
      6.209  0.1678E+00  0.1677E+00  0.7120E+01  0.7120E+01
      6.360  0.2097E+00  0.2096E+00  0.7149E+01  0.7148E+01
      6.511  0.2705E+00  0.2704E+00  0.7184E+01  0.7184E+01
      6.662  0.3663E+00  0.3661E+00  0.7232E+01  0.7232E+01
      6.813  0.4743E+00  0.4740E+00  0.7296E+01  0.7295E+01
      6.964  0.5763E+00  0.5755E+00  0.7376E+01  0.7376E+01
      7.114  0.6717E+00  0.6708E+00  0.7468E+01  0.7468E+01
      7.265  0.6873E+00  0.6875E+00  0.7573E+01  0.7573E+01
      7.416  0.6679E+00  0.6683E+00  0.7675E+01  0.7675E+01
      7.567  0.7202E+00  0.7205E+00  0.7780E+01  0.7780E+01
      7.718  0.8760E+00  0.8757E+00  0.7899E+01  0.7898E+01
      7.869  0.6365E+00  0.6381E+00  0.8025E+01  0.8024E+01
      8.020  0.3311E+00  0.3311E+00  0.8095E+01  0.8095E+01
      8.171  0.4080E+00  0.4077E+00  0.8150E+01  0.8150E+01
      8.322  0.5156E+00  0.5150E+00  0.8219E+01  0.8219E+01
      8.473  0.6401E+00  0.6393E+00  0.8306E+01  0.8306E+01
      8.623  0.1031E+01  0.1031E+01  0.8445E+01  0.8444E+01
      8.774  0.7271E+00  0.7280E+00  0.8570E+01  0.8569E+01
      8.925  0.7889E+00  0.7893E+00  0.8684E+01  0.8684E+01
      9.076  0.7691E+00  0.7695E+00  0.8805E+01  0.8804E+01
      9.227  0.1337E+01  0.1337E+01  0.8965E+01  0.8965E+01
      9.378  0.1392E+01  0.1390E+01  0.9177E+01  0.9176E+01
      9.529  0.1475E+01  0.1473E+01  0.9388E+01  0.9387E+01
      9.680  0.8903E+00  0.8903E+00  0.9556E+01  0.9555E+01
      9.831  0.7265E+00  0.7267E+00  0.9677E+01  0.9677E+01
      9.982  0.5450E+00  0.5455E+00  0.9773E+01  0.9773E+01
     10.132  0.3862E+00  0.3869E+00  0.9843E+01  0.9843E+01
     10.283  0.2751E+00  0.2739E+00  0.9894E+01  0.9894E+01
     10.434  0.4277E+00  0.4247E+00  0.9942E+01  0.9941E+01
     10.585  0.6449E+00  0.6421E+00  0.1003E+02  0.1003E+02
     10.736  0.6575E+00  0.6569E+00  0.1013E+02  0.1013E+02
     10.887  0.7825E+00  0.7816E+00  0.1024E+02  0.1023E+02
     11.038  0.1008E+01  0.1005E+01  0.1037E+02  0.1036E+02
     11.189  0.1140E+01  0.1146E+01  0.1053E+02  0.1053E+02
     11.340  0.6729E+00  0.6766E+00  0.1066E+02  0.1066E+02
     11.491  0.5213E+00  0.5217E+00  0.1075E+02  0.1075E+02
     11.642  0.5200E+00  0.5200E+00  0.1083E+02  0.1083E+02
     11.792  0.5236E+00  0.5238E+00  0.1091E+02  0.1091E+02
     11.943  0.5031E+00  0.5037E+00  0.1098E+02  0.1098E+02
     12.094  0.4037E+00  0.4041E+00  0.1105E+02  0.1105E+02
     12.245  0.3754E+00  0.3750E+00  0.1111E+02  0.1111E+02
     12.396  0.4080E+00  0.4078E+00  0.1117E+02  0.1117E+02
     12.547  0.4191E+00  0.4193E+00  0.1123E+02  0.1123E+02
     12.698  0.4266E+00  0.4264E+00  0.1130E+02  0.1130E+02
     12.849  0.4547E+00  0.4545E+00  0.1136E+02  0.1136E+02
     13.000  0.4716E+00  0.4714E+00  0.1143E+02  0.1143E+02
     13.151  0.8550E+00  0.8535E+00  0.1154E+02  0.1154E+02
     13.301  0.9034E+00  0.9025E+00  0.1167E+02  0.1167E+02
     13.452  0.8850E+00  0.8862E+00  0.1181E+02  0.1181E+02
     13.603  0.6944E+00  0.6959E+00  0.1193E+02  0.1193E+02
     13.754  0.5510E+00  0.5520E+00  0.1203E+02  0.1203E+02
     13.905  0.4095E+00  0.4097E+00  0.1211E+02  0.1211E+02
     14.056  0.2795E+00  0.2793E+00  0.1215E+02  0.1215E+02
     14.207  0.3354E+00  0.3351E+00  0.1220E+02  0.1220E+02
     14.358  0.4875E+00  0.4862E+00  0.1226E+02  0.1226E+02
     14.509  0.5820E+00  0.5693E+00  0.1234E+02  0.1234E+02
     14.660  0.1404E+01  0.1397E+01  0.1251E+02  0.1250E+02
     14.810  0.1427E+01  0.1425E+01  0.1276E+02  0.1275E+02
     14.961  0.5773E+00  0.5798E+00  0.1290E+02  0.1290E+02
     15.112  0.3928E+00  0.3943E+00  0.1297E+02  0.1297E+02
     15.263  0.3480E+00  0.3487E+00  0.1303E+02  0.1303E+02
     15.414  0.3346E+00  0.3351E+00  0.1308E+02  0.1308E+02
     15.565  0.3778E+00  0.3780E+00  0.1313E+02  0.1313E+02
     15.716  0.4105E+00  0.4103E+00  0.1319E+02  0.1319E+02
     15.867  0.4620E+00  0.4619E+00  0.1326E+02  0.1326E+02
     16.018  0.7572E+00  0.7547E+00  0.1335E+02  0.1335E+02
     16.169  0.1126E+01  0.1123E+01  0.1349E+02  0.1349E+02
     16.320  0.1252E+01  0.1252E+01  0.1367E+02  0.1367E+02
     16.470  0.9700E+00  0.9712E+00  0.1385E+02  0.1384E+02
     16.621  0.6847E+00  0.6886E+00  0.1397E+02  0.1397E+02
     16.772  0.8102E+00  0.8100E+00  0.1407E+02  0.1407E+02
     16.923  0.1056E+01  0.1055E+01  0.1420E+02  0.1420E+02
     17.074  0.9864E+00  0.9858E+00  0.1436E+02  0.1435E+02
     17.225  0.1111E+01  0.1110E+01  0.1451E+02  0.1451E+02
     17.376  0.1281E+01  0.1282E+01  0.1469E+02  0.1469E+02
     17.527  0.1228E+01  0.1230E+01  0.1489E+02  0.1489E+02
     17.678  0.8302E+00  0.8326E+00  0.1504E+02  0.1504E+02
     17.829  0.7762E+00  0.7808E+00  0.1516E+02  0.1516E+02
     17.979  0.1005E+01  0.1012E+01  0.1529E+02  0.1529E+02
     18.130  0.1217E+01  0.1228E+01  0.1546E+02  0.1546E+02
     18.281  0.1235E+01  0.1244E+01  0.1564E+02  0.1565E+02
     18.432  0.9267E+00  0.9022E+00  0.1581E+02  0.1582E+02
     18.583  0.4489E+00  0.4388E+00  0.1592E+02  0.1592E+02
     18.734  0.1914E+00  0.1898E+00  0.1597E+02  0.1597E+02
     18.885  0.8401E-01  0.8289E-01  0.1598E+02  0.1598E+02
     19.036  0.4249E-01  0.4182E-01  0.1599E+02  0.1599E+02
     19.187  0.1758E-01  0.1743E-01  0.1600E+02  0.1600E+02
     19.338  0.5773E-02  0.5753E-02  0.1600E+02  0.1600E+02
     19.489  0.4105E-03  0.4071E-03  0.1600E+02  0.1600E+02
     19.639  0.0000E+00  0.0000E+00  0.1600E+02  0.1600E+02
     19.790  0.0000E+00  0.0000E+00  0.1600E+02  0.1600E+02
     19.941  0.0000E+00  0.0000E+00  0.1600E+02  0.1600E+02
     20.092  0.0000E+00  0.0000E+00  0.1600E+02  0.1600E+02
     20.243  0.0000E+00  0.0000E+00  0.1600E+02  0.1600E+02
     20.394  0.0000E+00  0.0000E+00  0.1600E+02  0.1600E+02
     20.545  0.0000E+00  0.0000E+00  0.1600E+02  0.1600E+02
     20.696  0.0000E+00  0.0000E+00  0.1600E+02  0.1600E+02
     20.847  0.0000E+00  0.0000E+00  0.1600E+02  0.1600E+02
     20.998  0.0000E+00  0.0000E+00  0.1600E+02  0.1600E+02
     21.148  0.0000E+00  0.0000E+00  0.1600E+02  0.1600E+02
     21.299  0.0000E+00  0.0000E+00  0.1600E+02  0.1600E+02
     21.450  0.0000E+00  0.0000E+00  0.1600E+02  0.1600E+02
     21.601  0.0000E+00  0.0000E+00  0.1600E+02  0.1600E+02
     21.60116160    -23.66993032  301     -0.76089747      1.00000000
    -23.670  0.0000E+00  0.0000E+00  0.0000E+00  0.0000E+00  0.0000E+00  0.0000E+00  0.0000E+00  0.0000E+00  0.0000E+00  0.0000E+00  0.0000E+00  0.0000E+00  0.0000E+00  0.0000E+00  0.0000E+00  0.0000E+00  0.0000E+00  0.0000E+00
    -23.519  0.0000E+00  0.0000E+00  0.0000E+00  0.0000E+00  0.0000E+00  0.0000E+00  0.0000E+00  0.0000E+00  0.0000E+00  0.0000E+00  0.0000E+00  0.0000E+00  0.0000E+00  0.0000E+00  0.0000E+00  0.0000E+00  0.0000E+00  0.0000E+00
    -23.368  0.0000E+00  0.0000E+00  0.0000E+00  0.0000E+00  0.0000E+00  0.0000E+00  0.0000E+00  0.0000E+00  0.0000E+00  0.0000E+00  0.0000E+00  0.0000E+00  0.0000E+00  0.0000E+00  0.0000E+00  0.0000E+00  0.0000E+00  0.0000E+00
    -23.217  0.0000E+00  0.0000E+00  0.0000E+00  0.0000E+00  0.0000E+00  0.0000E+00  0.0000E+00  0.0000E+00  0.0000E+00  0.0000E+00  0.0000E+00  0.0000E+00  0.0000E+00  0.0000E+00  0.0000E+00  0.0000E+00  0.0000E+00  0.0000E+00
    -23.066  0.0000E+00  0.0000E+00  0.0000E+00  0.0000E+00  0.0000E+00  0.0000E+00  0.0000E+00  0.0000E+00  0.0000E+00  0.0000E+00  0.0000E+00  0.0000E+00  0.0000E+00  0.0000E+00  0.0000E+00  0.0000E+00  0.0000E+00  0.0000E+00
    -22.915  0.0000E+00  0.0000E+00  0.0000E+00  0.0000E+00  0.0000E+00  0.0000E+00  0.0000E+00  0.0000E+00  0.0000E+00  0.0000E+00  0.0000E+00  0.0000E+00  0.0000E+00  0.0000E+00  0.0000E+00  0.0000E+00  0.0000E+00  0.0000E+00
    -22.765  0.0000E+00  0.0000E+00  0.0000E+00  0.0000E+00  0.0000E+00  0.0000E+00  0.0000E+00  0.0000E+00  0.0000E+00  0.0000E+00  0.0000E+00  0.0000E+00  0.0000E+00  0.0000E+00  0.0000E+00  0.0000E+00  0.0000E+00  0.0000E+00
    -22.614  0.0000E+00  0.0000E+00  0.0000E+00  0.0000E+00  0.0000E+00  0.0000E+00  0.0000E+00  0.0000E+00  0.0000E+00  0.0000E+00  0.0000E+00  0.0000E+00  0.0000E+00  0.0000E+00  0.0000E+00  0.0000E+00  0.0000E+00  0.0000E+00
    -22.463  0.0000E+00  0.0000E+00  0.0000E+00  0.0000E+00  0.0000E+00  0.0000E+00  0.0000E+00  0.0000E+00  0.0000E+00  0.0000E+00  0.0000E+00  0.0000E+00  0.0000E+00  0.0000E+00  0.0000E+00  0.0000E+00  0.0000E+00  0.0000E+00
    -22.312  0.0000E+00  0.0000E+00  0.0000E+00  0.0000E+00  0.0000E+00  0.0000E+00  0.0000E+00  0.0000E+00  0.0000E+00  0.0000E+00  0.0000E+00  0.0000E+00  0.0000E+00  0.0000E+00  0.0000E+00  0.0000E+00  0.0000E+00  0.0000E+00
    -22.161  0.0000E+00  0.0000E+00  0.0000E+00  0.0000E+00  0.0000E+00  0.0000E+00  0.0000E+00  0.0000E+00  0.0000E+00  0.0000E+00  0.0000E+00  0.0000E+00  0.0000E+00  0.0000E+00  0.0000E+00  0.0000E+00  0.0000E+00  0.0000E+00
    -22.010  0.0000E+00  0.0000E+00  0.0000E+00  0.0000E+00  0.0000E+00  0.0000E+00  0.0000E+00  0.0000E+00  0.0000E+00  0.0000E+00  0.0000E+00  0.0000E+00  0.0000E+00  0.0000E+00  0.0000E+00  0.0000E+00  0.0000E+00  0.0000E+00
    -21.859  0.0000E+00  0.0000E+00  0.0000E+00  0.0000E+00  0.0000E+00  0.0000E+00  0.0000E+00  0.0000E+00  0.0000E+00  0.0000E+00  0.0000E+00  0.0000E+00  0.0000E+00  0.0000E+00  0.0000E+00  0.0000E+00  0.0000E+00  0.0000E+00
    -21.708  0.0000E+00  0.0000E+00  0.0000E+00  0.0000E+00  0.0000E+00  0.0000E+00  0.0000E+00  0.0000E+00  0.0000E+00  0.0000E+00  0.0000E+00  0.0000E+00  0.0000E+00  0.0000E+00  0.0000E+00  0.0000E+00  0.0000E+00  0.0000E+00
    -21.557  0.4113E-05  0.4231E-05  0.6553E+01  0.6553E+01  0.6553E+01  0.6553E+01  0.6553E+01  0.6553E+01  0.0000E+00  0.0000E+00  0.0000E+00  0.0000E+00  0.0000E+00  0.0000E+00  0.0000E+00  0.0000E+00  0.0000E+00  0.0000E+00
    -21.406  0.0000E+00  0.0000E+00  0.0000E+00  0.0000E+00  0.0000E+00  0.0000E+00  0.0000E+00  0.0000E+00  0.0000E+00  0.0000E+00  0.0000E+00  0.0000E+00  0.0000E+00  0.0000E+00  0.0000E+00  0.0000E+00  0.0000E+00  0.0000E+00
    -21.255  0.0000E+00  0.0000E+00  0.0000E+00  0.0000E+00  0.0000E+00  0.0000E+00  0.0000E+00  0.0000E+00  0.0000E+00  0.0000E+00  0.0000E+00  0.0000E+00  0.0000E+00  0.0000E+00  0.0000E+00  0.0000E+00  0.0000E+00  0.0000E+00
    -21.105  0.0000E+00  0.0000E+00  0.0000E+00  0.0000E+00  0.0000E+00  0.0000E+00  0.0000E+00  0.0000E+00  0.0000E+00  0.0000E+00  0.0000E+00  0.0000E+00  0.0000E+00  0.0000E+00  0.0000E+00  0.0000E+00  0.0000E+00  0.0000E+00
    -20.954  0.0000E+00  0.0000E+00  0.0000E+00  0.0000E+00  0.0000E+00  0.0000E+00  0.0000E+00  0.0000E+00  0.0000E+00  0.0000E+00  0.0000E+00  0.0000E+00  0.0000E+00  0.0000E+00  0.0000E+00  0.0000E+00  0.0000E+00  0.0000E+00
    -20.803  0.0000E+00  0.0000E+00  0.0000E+00  0.0000E+00  0.0000E+00  0.0000E+00  0.0000E+00  0.0000E+00  0.0000E+00  0.0000E+00  0.0000E+00  0.0000E+00  0.0000E+00  0.0000E+00  0.0000E+00  0.0000E+00  0.0000E+00  0.0000E+00
    -20.652  0.0000E+00  0.0000E+00  0.0000E+00  0.0000E+00  0.0000E+00  0.0000E+00  0.0000E+00  0.0000E+00  0.0000E+00  0.0000E+00  0.0000E+00  0.0000E+00  0.0000E+00  0.0000E+00  0.0000E+00  0.0000E+00  0.0000E+00  0.0000E+00
    -20.501  0.0000E+00  0.0000E+00  0.0000E+00  0.0000E+00  0.0000E+00  0.0000E+00  0.0000E+00  0.0000E+00  0.0000E+00  0.0000E+00  0.0000E+00  0.0000E+00  0.0000E+00  0.0000E+00  0.0000E+00  0.0000E+00  0.0000E+00  0.0000E+00
    -20.350  0.0000E+00  0.0000E+00  0.0000E+00  0.0000E+00  0.0000E+00  0.0000E+00  0.0000E+00  0.0000E+00  0.0000E+00  0.0000E+00  0.0000E+00  0.0000E+00  0.0000E+00  0.0000E+00  0.0000E+00  0.0000E+00  0.0000E+00  0.0000E+00
    -20.199  0.0000E+00  0.0000E+00  0.0000E+00  0.0000E+00  0.0000E+00  0.0000E+00  0.0000E+00  0.0000E+00  0.0000E+00  0.0000E+00  0.0000E+00  0.0000E+00  0.0000E+00  0.0000E+00  0.0000E+00  0.0000E+00  0.0000E+00  0.0000E+00
    -20.048  0.0000E+00  0.0000E+00  0.0000E+00  0.0000E+00  0.0000E+00  0.0000E+00  0.0000E+00  0.0000E+00  0.0000E+00  0.0000E+00  0.0000E+00  0.0000E+00  0.0000E+00  0.0000E+00  0.0000E+00  0.0000E+00  0.0000E+00  0.0000E+00
    -19.897  0.0000E+00  0.0000E+00  0.0000E+00  0.0000E+00  0.0000E+00  0.0000E+00  0.0000E+00  0.0000E+00  0.0000E+00  0.0000E+00  0.0000E+00  0.0000E+00  0.0000E+00  0.0000E+00  0.0000E+00  0.0000E+00  0.0000E+00  0.0000E+00
    -19.746  0.0000E+00  0.0000E+00  0.0000E+00  0.0000E+00  0.0000E+00  0.0000E+00  0.0000E+00  0.0000E+00  0.0000E+00  0.0000E+00  0.0000E+00  0.0000E+00  0.0000E+00  0.0000E+00  0.0000E+00  0.0000E+00  0.0000E+00  0.0000E+00
    -19.596  0.0000E+00  0.0000E+00  0.0000E+00  0.0000E+00  0.0000E+00  0.0000E+00  0.0000E+00  0.0000E+00  0.0000E+00  0.0000E+00  0.0000E+00  0.0000E+00  0.0000E+00  0.0000E+00  0.0000E+00  0.0000E+00  0.0000E+00  0.0000E+00
    -19.445  0.0000E+00  0.0000E+00  0.0000E+00  0.0000E+00  0.0000E+00  0.0000E+00  0.0000E+00  0.0000E+00  0.0000E+00  0.0000E+00  0.0000E+00  0.0000E+00  0.0000E+00  0.0000E+00  0.0000E+00  0.0000E+00  0.0000E+00  0.0000E+00
    -19.294  0.0000E+00  0.0000E+00  0.0000E+00  0.0000E+00  0.0000E+00  0.0000E+00  0.0000E+00  0.0000E+00  0.0000E+00  0.0000E+00  0.0000E+00  0.0000E+00  0.0000E+00  0.0000E+00  0.0000E+00  0.0000E+00  0.0000E+00  0.0000E+00
    -19.143  0.0000E+00  0.0000E+00  0.0000E+00  0.0000E+00  0.0000E+00  0.0000E+00  0.0000E+00  0.0000E+00  0.0000E+00  0.0000E+00  0.0000E+00  0.0000E+00  0.0000E+00  0.0000E+00  0.0000E+00  0.0000E+00  0.0000E+00  0.0000E+00
    -18.992  0.0000E+00  0.0000E+00  0.0000E+00  0.0000E+00  0.0000E+00  0.0000E+00  0.0000E+00  0.0000E+00  0.0000E+00  0.0000E+00  0.0000E+00  0.0000E+00  0.0000E+00  0.0000E+00  0.0000E+00  0.0000E+00  0.0000E+00  0.0000E+00
    -18.841  0.0000E+00  0.0000E+00  0.0000E+00  0.0000E+00  0.0000E+00  0.0000E+00  0.0000E+00  0.0000E+00  0.0000E+00  0.0000E+00  0.0000E+00  0.0000E+00  0.0000E+00  0.0000E+00  0.0000E+00  0.0000E+00  0.0000E+00  0.0000E+00
    -18.690  0.0000E+00  0.0000E+00  0.0000E+00  0.0000E+00  0.0000E+00  0.0000E+00  0.0000E+00  0.0000E+00  0.0000E+00  0.0000E+00  0.0000E+00  0.0000E+00  0.0000E+00  0.0000E+00  0.0000E+00  0.0000E+00  0.0000E+00  0.0000E+00
    -18.539  0.0000E+00  0.0000E+00  0.0000E+00  0.0000E+00  0.0000E+00  0.0000E+00  0.0000E+00  0.0000E+00  0.0000E+00  0.0000E+00  0.0000E+00  0.0000E+00  0.0000E+00  0.0000E+00  0.0000E+00  0.0000E+00  0.0000E+00  0.0000E+00
    -18.388  0.0000E+00  0.0000E+00  0.0000E+00  0.0000E+00  0.0000E+00  0.0000E+00  0.0000E+00  0.0000E+00  0.0000E+00  0.0000E+00  0.0000E+00  0.0000E+00  0.0000E+00  0.0000E+00  0.0000E+00  0.0000E+00  0.0000E+00  0.0000E+00
    -18.237  0.0000E+00  0.0000E+00  0.0000E+00  0.0000E+00  0.0000E+00  0.0000E+00  0.0000E+00  0.0000E+00  0.0000E+00  0.0000E+00  0.0000E+00  0.0000E+00  0.0000E+00  0.0000E+00  0.0000E+00  0.0000E+00  0.0000E+00  0.0000E+00
    -18.086  0.0000E+00  0.0000E+00  0.0000E+00  0.0000E+00  0.0000E+00  0.0000E+00  0.0000E+00  0.0000E+00  0.0000E+00  0.0000E+00  0.0000E+00  0.0000E+00  0.0000E+00  0.0000E+00  0.0000E+00  0.0000E+00  0.0000E+00  0.0000E+00
    -17.936  0.0000E+00  0.0000E+00  0.0000E+00  0.0000E+00  0.0000E+00  0.0000E+00  0.0000E+00  0.0000E+00  0.0000E+00  0.0000E+00  0.0000E+00  0.0000E+00  0.0000E+00  0.0000E+00  0.0000E+00  0.0000E+00  0.0000E+00  0.0000E+00
    -17.785  0.0000E+00  0.0000E+00  0.0000E+00  0.0000E+00  0.0000E+00  0.0000E+00  0.0000E+00  0.0000E+00  0.0000E+00  0.0000E+00  0.0000E+00  0.0000E+00  0.0000E+00  0.0000E+00  0.0000E+00  0.0000E+00  0.0000E+00  0.0000E+00
    -17.634  0.0000E+00  0.0000E+00  0.0000E+00  0.0000E+00  0.0000E+00  0.0000E+00  0.0000E+00  0.0000E+00  0.0000E+00  0.0000E+00  0.0000E+00  0.0000E+00  0.0000E+00  0.0000E+00  0.0000E+00  0.0000E+00  0.0000E+00  0.0000E+00
    -17.483  0.0000E+00  0.0000E+00  0.0000E+00  0.0000E+00  0.0000E+00  0.0000E+00  0.0000E+00  0.0000E+00  0.0000E+00  0.0000E+00  0.0000E+00  0.0000E+00  0.0000E+00  0.0000E+00  0.0000E+00  0.0000E+00  0.0000E+00  0.0000E+00
    -17.332  0.0000E+00  0.0000E+00  0.0000E+00  0.0000E+00  0.0000E+00  0.0000E+00  0.0000E+00  0.0000E+00  0.0000E+00  0.0000E+00  0.0000E+00  0.0000E+00  0.0000E+00  0.0000E+00  0.0000E+00  0.0000E+00  0.0000E+00  0.0000E+00
    -17.181  0.0000E+00  0.0000E+00  0.0000E+00  0.0000E+00  0.0000E+00  0.0000E+00  0.0000E+00  0.0000E+00  0.0000E+00  0.0000E+00  0.0000E+00  0.0000E+00  0.0000E+00  0.0000E+00  0.0000E+00  0.0000E+00  0.0000E+00  0.0000E+00
    -17.030  0.0000E+00  0.0000E+00  0.0000E+00  0.0000E+00  0.0000E+00  0.0000E+00  0.0000E+00  0.0000E+00  0.0000E+00  0.0000E+00  0.0000E+00  0.0000E+00  0.0000E+00  0.0000E+00  0.0000E+00  0.0000E+00  0.0000E+00  0.0000E+00
    -16.879  0.0000E+00  0.0000E+00  0.0000E+00  0.0000E+00  0.0000E+00  0.0000E+00  0.0000E+00  0.0000E+00  0.0000E+00  0.0000E+00  0.0000E+00  0.0000E+00  0.0000E+00  0.0000E+00  0.0000E+00  0.0000E+00  0.0000E+00  0.0000E+00
    -16.728  0.0000E+00  0.0000E+00  0.0000E+00  0.0000E+00  0.0000E+00  0.0000E+00  0.0000E+00  0.0000E+00  0.0000E+00  0.0000E+00  0.0000E+00  0.0000E+00  0.0000E+00  0.0000E+00  0.0000E+00  0.0000E+00  0.0000E+00  0.0000E+00
    -16.577  0.0000E+00  0.0000E+00  0.0000E+00  0.0000E+00  0.0000E+00  0.0000E+00  0.0000E+00  0.0000E+00  0.0000E+00  0.0000E+00  0.0000E+00  0.0000E+00  0.0000E+00  0.0000E+00  0.0000E+00  0.0000E+00  0.0000E+00  0.0000E+00
    -16.427  0.0000E+00  0.0000E+00  0.0000E+00  0.0000E+00  0.0000E+00  0.0000E+00  0.0000E+00  0.0000E+00  0.0000E+00  0.0000E+00  0.0000E+00  0.0000E+00  0.0000E+00  0.0000E+00  0.0000E+00  0.0000E+00  0.0000E+00  0.0000E+00
    -16.276  0.0000E+00  0.0000E+00  0.0000E+00  0.0000E+00  0.0000E+00  0.0000E+00  0.0000E+00  0.0000E+00  0.0000E+00  0.0000E+00  0.0000E+00  0.0000E+00  0.0000E+00  0.0000E+00  0.0000E+00  0.0000E+00  0.0000E+00  0.0000E+00
    -16.125  0.0000E+00  0.0000E+00  0.0000E+00  0.0000E+00  0.0000E+00  0.0000E+00  0.0000E+00  0.0000E+00  0.0000E+00  0.0000E+00  0.0000E+00  0.0000E+00  0.0000E+00  0.0000E+00  0.0000E+00  0.0000E+00  0.0000E+00  0.0000E+00