    2    2    1    2
  0.2254249E+02  0.3994990E-09  0.3994990E-09  0.3994989E-09  0.5000000E-15
  1.000000000000000E-004
  CAR 
 unknown system                          
     14     20     16
 
  0.0000000E+00  0.0000000E+00  0.0000000E+00  0.2915452E-02
    1      -21.585033    -21.585855   1.000000   1.000000
    2      -21.585010    -21.585815   1.000000   1.000000
    3      -21.585009    -21.585814   1.000000   1.000000
    4      -13.413831    -13.413384   1.000000   1.000000
    5       -0.761595     -0.761019   1.000000   1.000000
    6       -0.761589     -0.761015   1.000000   1.000000
    7       -0.761588     -0.761015   1.000000   1.000000
    8        4.315440      4.315863   0.000000   0.000000
    9       10.358119     10.359343   0.000000   0.000000
   10       10.358121     10.359345   0.000000   0.000000
   11       10.358147     10.359353   0.000000   0.000000
   12       12.527514     12.529246   0.000000   0.000000
   13       12.527515     12.529247   0.000000   0.000000
   14       14.090303     14.086802   0.000000   0.000000
   15       16.293087     16.294669   0.000000   0.000000
   16       16.293150     16.294722   0.000000   0.000000
 
  0.1428571E+00 -0.1347422E-17  0.0000000E+00  0.2332362E-01
    1      -21.589472    -21.590277   1.000000   1.000000
    2      -21.584643    -21.585461   1.000000   1.000000
    3      -21.584622    -21.585426   1.000000   1.000000
    4      -13.354183    -13.353742   1.000000   1.000000
    5       -1.220313     -1.219710   1.000000   1.000000
    6       -0.810965     -0.810382   1.000000   1.000000
    7       -0.810959     -0.810378   1.000000   1.000000
    8        4.940917      4.941329   0.000000   0.000000
    9        9.708628      9.709054   0.000000   0.000000
   10       10.598196     10.599432   0.000000   0.000000
   11       10.598203     10.599458   0.000000   0.000000
   12       12.233066     12.234830   0.000000   0.000000
   13       12.233087     12.234820   0.000000   0.000000
   14       15.111681     15.109971   0.000000   0.000000
   15       16.263479     16.263403   0.000000   0.000000
   16       17.322538     17.324046   0.000000   0.000000
 
  0.2857143E+00 -0.1657264E-16  0.1033976E-24  0.2332362E-01
    1      -21.601704    -21.602505   1.000000   1.000000
    2      -21.585665    -21.586484   1.000000   1.000000
    3      -21.585644    -21.586448   1.000000   1.000000
    4      -13.215654    -13.215225   1.000000   1.000000
    5       -2.045371     -2.044720   1.000000   1.000000
    6       -0.922548     -0.921956   1.000000   1.000000
    7       -0.922544     -0.921951   1.000000   1.000000
    8        6.026294      6.026644   0.000000   0.000000
    9        9.215290      9.215302   0.000000   0.000000
   10       10.566098     10.567579   0.000000   0.000000
   11       10.566100     10.567634   0.000000   0.000000
   12       12.780513     12.781987   0.000000   0.000000
   13       12.780553     12.782014   0.000000   0.000000
   14       14.629282     14.628847   0.000000   0.000000
   15       18.979460     18.977334   0.000000   0.000000
   16       19.543385     19.543204   0.000000   0.000000
 
  0.4285714E+00  0.2896624E-17  0.1033976E-24  0.2332362E-01
    1      -21.611355    -21.612153   1.000000   1.000000
    2      -21.586274    -21.587092   1.000000   1.000000
    3      -21.586253    -21.587057   1.000000   1.000000
    4      -13.099564    -13.099147   1.000000   1.000000
    5       -2.594313     -2.593630   1.000000   1.000000
    6       -1.007673     -1.007074   1.000000   1.000000
    7       -1.007670     -1.007068   1.000000   1.000000
    8        6.469806      6.469960   0.000000   0.000000
    9        9.671407      9.671563   0.000000   0.000000
   10       10.259690     10.261292   0.000000   0.000000
   11       10.259691     10.261349   0.000000   0.000000
   12       14.207441     14.206622   0.000000   0.000000
   13       14.616987     14.618087   0.000000   0.000000
   14       14.617006     14.618104   0.000000   0.000000
   15       17.161935     17.161795   0.000000   0.000000
   16       17.418586     17.420113   0.000000   0.000000
 
  0.1428571E+00  0.1428571E+00  0.1033976E-24  0.1749271E-01
    1      -21.589054    -21.589862   1.000000   1.000000
    2      -21.585709    -21.586524   1.000000   1.000000
    3      -21.585693    -21.586497   1.000000   1.000000
    4      -13.336314    -13.335874   1.000000   1.000000
    5       -1.242426     -1.241844   1.000000   1.000000
    6       -0.882476     -0.881878   1.000000   1.000000
    7       -0.882471     -0.881875   1.000000   1.000000
    8        5.144875      5.145298   0.000000   0.000000
    9        9.360024      9.360332   0.000000   0.000000
   10       10.834331     10.835564   0.000000   0.000000
   11       10.834350     10.835573   0.000000   0.000000
   12       11.322647     11.324332   0.000000   0.000000
   13       12.818386     12.820098   0.000000   0.000000
   14       15.823706     15.821115   0.000000   0.000000
   15       16.835381     16.836904   0.000000   0.000000
   16       16.835436     16.836974   0.000000   0.000000
 
  0.2857143E+00  0.1428571E+00  0.0000000E+00  0.6997085E-01
    1      -21.597750    -21.598554   1.000000   1.000000
    2      -21.587140    -21.587955   1.000000   1.000000
    3      -21.586496    -21.587302   1.000000   1.000000
    4      -13.228586    -13.228156   1.000000   1.000000
    5       -1.834800     -1.834181   1.000000   1.000000
    6       -1.007400     -1.006801   1.000000   1.000000
    7       -1.003352     -1.002739   1.000000   1.000000
    8        6.123363      6.123793   0.000000   0.000000
    9        8.799578      8.799531   0.000000   0.000000
   10       10.235656     10.237076   0.000000   0.000000
   11       11.087669     11.089037   0.000000   0.000000
   12       11.838225     11.839561   0.000000   0.000000
   13       13.314660     13.316215   0.000000   0.000000
   14       16.083908     16.083882   0.000000   0.000000
   15       18.182931     18.184032   0.000000   0.000000
   16       18.371981     18.368812   0.000000   0.000000
 
  0.4285714E+00  0.1428571E+00  0.2067952E-24  0.6997085E-01
    1      -21.607035    -21.607835   1.000000   1.000000
    2      -21.587784    -21.588590   1.000000   1.000000
    3      -21.587385    -21.588198   1.000000   1.000000
    4      -13.108007    -13.107587   1.000000   1.000000
    5       -2.383810     -2.383146   1.000000   1.000000
    6       -1.180308     -1.179708   1.000000   1.000000
    7       -1.081300     -1.080681   1.000000   1.000000
    8        6.863752      6.863991   0.000000   0.000000
    9        9.055592      9.055857   0.000000   0.000000
   10        9.666119      9.667133   0.000000   0.000000
   11       10.783302     10.784893   0.000000   0.000000
   12       13.245672     13.247027   0.000000   0.000000
   13       14.920821     14.921948   0.000000   0.000000
   14       15.655220     15.654934   0.000000   0.000000
   15       16.926008     16.926231   0.000000   0.000000
   16       17.388138     17.389498   0.000000   0.000000
 
 -0.4285714E+00  0.1428571E+00 -0.5169879E-25  0.6997085E-01
    1      -21.609980    -21.610779   1.000000   1.000000
    2      -21.589379    -21.590186   1.000000   1.000000
    3      -21.587078    -21.587893   1.000000   1.000000
    4      -13.068513    -13.068097   1.000000   1.000000
    5       -2.537308     -2.536626   1.000000   1.000000
    6       -1.288920     -1.288313   1.000000   1.000000
    7       -1.064764     -1.064154   1.000000   1.000000
    8        7.008147      7.008247   0.000000   0.000000
    9        9.276820      9.277945   0.000000   0.000000
   10        9.778304      9.778478   0.000000   0.000000
   11       10.576869     10.578549   0.000000   0.000000
   12       14.484088     14.485077   0.000000   0.000000
   13       14.505475     14.506498   0.000000   0.000000
   14       15.442332     15.442440   0.000000   0.000000
   15       16.285604     16.285792   0.000000   0.000000
   16       17.644943     17.646085   0.000000   0.000000
 
 -0.2857143E+00  0.1428571E+00 -0.5169879E-25  0.6997085E-01
    1      -21.604558    -21.605357   1.000000   1.000000
    2      -21.589257    -21.590065   1.000000   1.000000
    3      -21.585781    -21.586596   1.000000   1.000000
    4      -13.142717    -13.142294   1.000000   1.000000
    5       -2.227298     -2.226635   1.000000   1.000000
    6       -1.242374     -1.241759   1.000000   1.000000
    7       -0.963267     -0.962675   1.000000   1.000000
    8        6.756638      6.756932   0.000000   0.000000
    9        9.057736      9.057657   0.000000   0.000000
   10        9.814215      9.815469   0.000000   0.000000
   11       10.753686     10.755386   0.000000   0.000000
   12       12.452062     12.453300   0.000000   0.000000
   13       14.560853     14.562235   0.000000   0.000000
   14       15.738800     15.738734   0.000000   0.000000
   15       16.761306     16.761840   0.000000   0.000000
   16       18.813321     18.813066   0.000000   0.000000
 
 -0.1428571E+00  0.1428571E+00 -0.1416765E-25  0.3498542E-01
    1      -21.595390    -21.596191   1.000000   1.000000
    2      -21.587301    -21.588110   1.000000   1.000000
    3      -21.584824    -21.585639   1.000000   1.000000
    4      -13.270050    -13.269616   1.000000   1.000000
    5       -1.655552     -1.654927   1.000000   1.000000
    6       -1.031526     -1.030918   1.000000   1.000000
    7       -0.848865     -0.848285   1.000000   1.000000
    8        5.754604      5.755007   0.000000   0.000000
    9        9.158240      9.158267   0.000000   0.000000
   10       10.473975     10.475263   0.000000   0.000000
   11       11.063142     11.064320   0.000000   0.000000
   12       11.405440     11.407271   0.000000   0.000000
   13       13.004910     13.006411   0.000000   0.000000
   14       16.213776     16.213212   0.000000   0.000000
   15       16.550471     16.550902   0.000000   0.000000
   16       18.139555     18.139212   0.000000   0.000000
 
  0.2857143E+00  0.2857143E+00  0.1033976E-24  0.1749271E-01
    1      -21.598696    -21.599503   1.000000   1.000000
    2      -21.589293    -21.590108   1.000000   1.000000
    3      -21.589277    -21.590080   1.000000   1.000000
    4      -13.172058    -13.171630   1.000000   1.000000
    5       -1.975738     -1.975151   1.000000   1.000000
    6       -1.137698     -1.137061   1.000000   1.000000
    7       -1.137695     -1.137059   1.000000   1.000000
    8        6.591771      6.592446   0.000000   0.000000
    9        8.096561      8.096382   0.000000   0.000000
   10        9.834316      9.835413   0.000000   0.000000
   11       12.045120     12.046376   0.000000   0.000000
   12       12.045144     12.046389   0.000000   0.000000
   13       13.575545     13.577229   0.000000   0.000000
   14       18.163087     18.163898   0.000000   0.000000
   15       18.163120     18.163949   0.000000   0.000000
   16       19.219798     19.211652   0.000000   0.000000
 
  0.4285714E+00  0.2857143E+00  0.2067952E-24  0.6997085E-01
    1      -21.602379    -21.603182   1.000000   1.000000
    2      -21.591500    -21.592304   1.000000   1.000000
    3      -21.590007    -21.590820   1.000000   1.000000
    4      -13.086872    -13.086451   1.000000   1.000000
    5       -2.235444     -2.234837   1.000000   1.000000
    6       -1.369171     -1.368529   1.000000   1.000000
    7       -1.223218     -1.222571   1.000000   1.000000
    8        7.143012      7.143896   0.000000   0.000000
    9        7.981459      7.981307   0.000000   0.000000
   10        9.544570      9.545111   0.000000   0.000000
   11       12.051669     12.053198   0.000000   0.000000
   12       13.000176     13.001548   0.000000   0.000000
   13       14.864223     14.865545   0.000000   0.000000
   14       16.776762     16.777014   0.000000   0.000000
   15       17.352745     17.353508   0.000000   0.000000
   16       18.513057     18.503660   0.000000   0.000000
 
 -0.4285714E+00  0.2857143E+00 -0.1292470E-24  0.6997085E-01
    1      -21.604209    -21.605011   1.000000   1.000000
    2      -21.595842    -21.596646   1.000000   1.000000
    3      -21.589374    -21.590188   1.000000   1.000000
    4      -13.037633    -13.037216   1.000000   1.000000
    5       -2.251626     -2.250983   1.000000   1.000000
    6       -1.734562     -1.733930   1.000000   1.000000
    7       -1.203564     -1.202927   1.000000   1.000000
    8        7.578387      7.578914   0.000000   0.000000
    9        8.477507      8.478055   0.000000   0.000000
   10        9.497463      9.497354   0.000000   0.000000
   11       11.573751     11.575485   0.000000   0.000000
   12       12.999535     13.000882   0.000000   0.000000
   13       14.815759     14.816460   0.000000   0.000000
   14       16.605234     16.605844   0.000000   0.000000
   15       17.416181     17.417761   0.000000   0.000000
   16       18.469419     18.446133   0.000000   0.000000
 
 -0.2857143E+00  0.2857143E+00 -0.2833530E-25  0.3498542E-01
    1      -21.603980    -21.604778   1.000000   1.000000
    2      -21.595532    -21.596340   1.000000   1.000000
    3      -21.587147    -21.587961   1.000000   1.000000
    4      -13.063048    -13.062631   1.000000   1.000000
    5       -2.205069     -2.204393   1.000000   1.000000
    6       -1.732251     -1.731637   1.000000   1.000000
    7       -1.089990     -1.089373   1.000000   1.000000
    8        7.801477      7.801671   0.000000   0.000000
    9        8.809066      8.810254   0.000000   0.000000
   10        9.074563      9.074292   0.000000   0.000000
   11       11.200208     11.202065   0.000000   0.000000
   12       13.075055     13.076005   0.000000   0.000000
   13       13.935903     13.936994   0.000000   0.000000
   14       16.674903     16.675932   0.000000   0.000000
   15       17.868294     17.868110   0.000000   0.000000
   16       18.546779     18.546601   0.000000   0.000000
 
  0.4285714E+00  0.4285714E+00  0.0000000E+00  0.1749271E-01
    1      -21.603408    -21.604213   1.000000   1.000000
    2      -21.591708    -21.592521   1.000000   1.000000
    3      -21.591692    -21.592494   1.000000   1.000000
    4      -13.051729    -13.051308   1.000000   1.000000
    5       -2.360102     -2.359521   1.000000   1.000000
    6       -1.323501     -1.322837   1.000000   1.000000
    7       -1.323498     -1.322835   1.000000   1.000000
    8        6.825313      6.826635   0.000000   0.000000
    9        7.410294      7.409962   0.000000   0.000000
   10       10.253552     10.253594   0.000000   0.000000
   11       13.566738     13.568270   0.000000   0.000000
   12       13.566769     13.568291   0.000000   0.000000
   13       14.408031     14.409661   0.000000   0.000000
   14       16.788682     16.789617   0.000000   0.000000
   15       16.816509     16.816665   0.000000   0.000000
   16       16.816519     16.816668   0.000000   0.000000
 
 -0.4285714E+00  0.4285714E+00 -0.1570112E-24  0.3498542E-01
    1      -21.603086    -21.603892   1.000000   1.000000
    2      -21.595134    -21.595936   1.000000   1.000000
    3      -21.591485    -21.592298   1.000000   1.000000
    4      -13.029811    -13.029392   1.000000   1.000000
    5       -2.320379     -2.319794   1.000000   1.000000
    6       -1.559370     -1.558698   1.000000   1.000000
    7       -1.315286     -1.314626   1.000000   1.000000
    8        7.061042      7.062257   0.000000   0.000000
    9        7.667579      7.667378   0.000000   0.000000
   10       10.223338     10.223165   0.000000   0.000000
   11       12.825470     12.827224   0.000000   0.000000
   12       13.271463     13.273046   0.000000   0.000000
   13       15.727370     15.727624   0.000000   0.000000
   14       15.975720     15.977317   0.000000   0.000000
   15       16.684312     16.684357   0.000000   0.000000
   16       16.986773     16.987941   0.000000   0.000000
 
  0.4285714E+00  0.2857143E+00  0.1428571E+00  0.6997085E-01
    1      -21.601847    -21.602656   1.000000   1.000000
    2      -21.591097    -21.591905   1.000000   1.000000
    3      -21.587301    -21.588105   1.000000   1.000000
    4      -13.133490    -13.133066   1.000000   1.000000
    5       -2.119553     -2.118930   1.000000   1.000000
    6       -1.336788     -1.336160   1.000000   1.000000
    7       -1.076198     -1.075584   1.000000   1.000000
    8        7.066468      7.066998   0.000000   0.000000
    9        8.484610      8.484383   0.000000   0.000000
   10        9.430439      9.431651   0.000000   0.000000
   11       11.478894     11.480543   0.000000   0.000000
   12       12.235450     12.236618   0.000000   0.000000
   13       14.654538     14.655889   0.000000   0.000000
   14       16.798847     16.799358   0.000000   0.000000
   15       17.619735     17.619950   0.000000   0.000000
   16       17.816838     17.816905   0.000000   0.000000
 
 -0.4285714E+00  0.2857143E+00  0.1428571E+00  0.1399417E+00
    1      -21.605385    -21.606188   1.000000   1.000000
    2      -21.593531    -21.594344   1.000000   1.000000
    3      -21.588974    -21.589779   1.000000   1.000000
    4      -13.055171    -13.054753   1.000000   1.000000
    5       -2.298331     -2.297673   1.000000   1.000000
    6       -1.579889     -1.579281   1.000000   1.000000
    7       -1.193829     -1.193195   1.000000   1.000000
    8        7.735725      7.735925   0.000000   0.000000
    9        8.665086      8.666151   0.000000   0.000000
   10        9.134414      9.134373   0.000000   0.000000
   11       11.177014     11.178637   0.000000   0.000000
   12       13.372715     13.373841   0.000000   0.000000
   13       14.757340     14.758431   0.000000   0.000000
   14       16.094350     16.095144   0.000000   0.000000
   15       17.568991     17.568916   0.000000   0.000000
   16       18.004147     18.004385   0.000000   0.000000
 
 -0.4285714E+00  0.4285714E+00  0.1428571E+00  0.6997085E-01
    1      -21.602404    -21.603213   1.000000   1.000000
    2      -21.593865    -21.594672   1.000000   1.000000
    3      -21.592328    -21.593132   1.000000   1.000000
    4      -13.037803    -13.037385   1.000000   1.000000
    5       -2.242364     -2.241767   1.000000   1.000000
    6       -1.556789     -1.556147   1.000000   1.000000
    7       -1.386818     -1.386147   1.000000   1.000000
    8        7.484437      7.485693   0.000000   0.000000
    9        7.998950      7.998628   0.000000   0.000000
   10        9.592129      9.592230   0.000000   0.000000
   11       11.807757     11.809337   0.000000   0.000000
   12       13.837351     13.838768   0.000000   0.000000
   13       15.200827     15.201993   0.000000   0.000000
   14       15.967950     15.968822   0.000000   0.000000
   15       16.874427     16.874593   0.000000   0.000000
   16       18.181120     18.182272   0.000000   0.000000
 
 -0.2857143E+00  0.4285714E+00  0.1428571E+00  0.6997085E-01
    1      -21.599231    -21.600031   1.000000   1.000000
    2      -21.598731    -21.599537   1.000000   1.000000
    3      -21.591452    -21.592265   1.000000   1.000000
    4      -13.023724    -13.023308   1.000000   1.000000
    5       -2.009011     -2.008405   1.000000   1.000000
    6       -1.945684     -1.945028   1.000000   1.000000
    7       -1.368508     -1.367849   1.000000   1.000000
    8        7.993620      7.994674   0.000000   0.000000
    9        8.504520      8.504516   0.000000   0.000000
   10        9.270800      9.270525   0.000000   0.000000
   11       10.973222     10.974915   0.000000   0.000000
   12       13.865971     13.867450   0.000000   0.000000
   13       14.639981     14.640936   0.000000   0.000000
   14       16.434727     16.436038   0.000000   0.000000
   15       16.968751     16.968957   0.000000   0.000000
   16       18.621687     18.622948   0.000000   0.000000
