       N       E                     dE             d eps       ncg     rms          rms(c)
DAV:   1     0.282875958782E+02    0.28288E+02   -0.60798E+03  1280   0.566E+02
DAV:   2    -0.571729236641E+01   -0.34005E+02   -0.33947E+02  1712   0.922E+01
DAV:   3    -0.636555349134E+01   -0.64826E+00   -0.64826E+00  1472   0.163E+01
DAV:   4    -0.636808520648E+01   -0.25317E-02   -0.25317E-02  2112   0.947E-01
DAV:   5    -0.636808676721E+01   -0.15607E-05   -0.15608E-05  1520   0.151E-02    0.831E+00
RMM:   6    -0.669306624699E+01   -0.32498E+00   -0.36109E-01  1514   0.479E+00    0.322E+00
RMM:   7    -0.676113838591E+01   -0.68072E-01   -0.87281E-02  1409   0.215E+00    0.826E-01
RMM:   8    -0.676737594299E+01   -0.62376E-02   -0.27323E-02  1618   0.914E-01    0.370E-01
RMM:   9    -0.676995184317E+01   -0.25759E-02   -0.49128E-03  1558   0.501E-01    0.223E-01
RMM:  10    -0.677179335761E+01   -0.18415E-02   -0.19605E-03  1524   0.326E-01    0.500E-02
RMM:  11    -0.677196526769E+01   -0.17191E-03   -0.30561E-04  1505   0.139E-01    0.182E-02
RMM:  12    -0.677199331843E+01   -0.28051E-04   -0.74481E-05  1405   0.585E-02
   1 F= -.67719933E+01 E0= -.67719933E+01  d E =0.000000E+00  mag=    -0.0002
