PROCAR lm decomposed
# of k-points:   20         # of bands:   16         # of ions:    2

 k-point     1 :    0.00000000 0.00000000 0.00000000     weight = 0.00291545

band     1 # energy  -21.58503305 # occ.  1.00000000
 
ion      s     py     pz     px    dxy    dyz    dz2    dxz  x2-y2    tot
    1  0.000  0.102  0.669  0.219  0.000  0.000  0.000  0.000  0.000  0.990
    2  0.000  0.000  0.000  0.000  0.000  0.000  0.000  0.000  0.000  0.000
tot    0.000  0.102  0.669  0.219  0.000  0.000  0.000  0.000  0.000  0.990
 
band     2 # energy  -21.58501001 # occ.  1.00000000
 
ion      s     py     pz     px    dxy    dyz    dz2    dxz  x2-y2    tot
    1  0.000  0.018  0.271  0.701  0.000  0.000  0.000  0.000  0.000  0.990
    2  0.000  0.000  0.000  0.000  0.000  0.000  0.000  0.000  0.000  0.000
tot    0.000  0.018  0.271  0.701  0.000  0.000  0.000  0.000  0.000  0.990
 
band     3 # energy  -21.58500886 # occ.  1.00000000
 
ion      s     py     pz     px    dxy    dyz    dz2    dxz  x2-y2    tot
    1  0.000  0.871  0.049  0.070  0.000  0.000  0.000  0.000  0.000  0.990
    2  0.000  0.000  0.000  0.000  0.000  0.000  0.000  0.000  0.000  0.000
tot    0.000  0.871  0.049  0.070  0.000  0.000  0.000  0.000  0.000  0.990
 
band     4 # energy  -13.41383101 # occ.  1.00000000
 
ion      s     py     pz     px    dxy    dyz    dz2    dxz  x2-y2    tot
    1  0.005  0.000  0.000  0.000  0.000  0.000  0.000  0.000  0.000  0.005
    2  0.758  0.000  0.000  0.000  0.000  0.000  0.000  0.000  0.000  0.758
tot    0.763  0.000  0.000  0.000  0.000  0.000  0.000  0.000  0.000  0.763
 
band     5 # energy   -0.76159515 # occ.  1.00000000
 
ion      s     py     pz     px    dxy    dyz    dz2    dxz  x2-y2    tot
    1  0.000  0.000  0.004  0.001  0.000  0.000  0.000  0.000  0.000  0.005
    2  0.000  0.064  0.505  0.116  0.000  0.000  0.000  0.000  0.000  0.685
tot    0.000  0.065  0.509  0.117  0.000  0.000  0.000  0.000  0.000  0.690
 
band     6 # energy   -0.76158859 # occ.  1.00000000
 
ion      s     py     pz     px    dxy    dyz    dz2    dxz  x2-y2    tot
    1  0.000  0.001  0.001  0.003  0.000  0.000  0.000  0.000  0.000  0.005
    2  0.000  0.168  0.081  0.437  0.000  0.000  0.000  0.000  0.000  0.685
tot    0.000  0.169  0.082  0.440  0.000  0.000  0.000  0.000  0.000  0.690
 
band     7 # energy   -0.76158774 # occ.  1.00000000
 
ion      s     py     pz     px    dxy    dyz    dz2    dxz  x2-y2    tot
    1  0.000  0.003  0.001  0.001  0.000  0.000  0.000  0.000  0.000  0.005
    2  0.000  0.453  0.099  0.133  0.000  0.000  0.000  0.000  0.000  0.685
tot    0.000  0.457  0.100  0.134  0.000  0.000  0.000  0.000  0.000  0.690
 
band     8 # energy    4.31543986 # occ.  0.00000000
 
ion      s     py     pz     px    dxy    dyz    dz2    dxz  x2-y2    tot
    1  0.160  0.000  0.000  0.000  0.000  0.000  0.000  0.000  0.000  0.160
    2  0.141  0.000  0.000  0.000  0.000  0.000  0.000  0.000  0.000  0.141
tot    0.301  0.000  0.000  0.000  0.000  0.000  0.000  0.000  0.000  0.301
 
band     9 # energy   10.35811898 # occ.  0.00000000
 
ion      s     py     pz     px    dxy    dyz    dz2    dxz  x2-y2    tot
    1  0.000  0.000  0.000  0.000  0.000  0.000  0.000  0.000  0.000  0.000
    2  0.000  0.000  0.000  0.000  0.000  0.000  0.000  0.000  0.000  0.000
tot    0.000  0.000  0.000  0.000  0.000  0.000  0.000  0.000  0.000  0.000
 
band    10 # energy   10.35812101 # occ.  0.00000000
 
ion      s     py     pz     px    dxy    dyz    dz2    dxz  x2-y2    tot
    1  0.000  0.000  0.000  0.000  0.000  0.000  0.000  0.000  0.000  0.000
    2  0.000  0.000  0.000  0.000  0.000  0.000  0.000  0.000  0.000  0.000
tot    0.000  0.000  0.000  0.000  0.000  0.000  0.000  0.000  0.000  0.000
 
band    11 # energy   10.35814682 # occ.  0.00000000
 
ion      s     py     pz     px    dxy    dyz    dz2    dxz  x2-y2    tot
    1  0.000  0.000  0.000  0.000  0.000  0.000  0.000  0.000  0.000  0.000
    2  0.000  0.000  0.000  0.000  0.000  0.000  0.000  0.000  0.000  0.000
tot    0.000  0.000  0.000  0.000  0.000  0.000  0.000  0.000  0.000  0.000
 
band    12 # energy   12.52751389 # occ.  0.00000000
 
ion      s     py     pz     px    dxy    dyz    dz2    dxz  x2-y2    tot
    1  0.000  0.000  0.000  0.000  0.000  0.000  0.000  0.000  0.000  0.000
    2  0.000  0.000  0.000  0.000  0.000  0.000  0.000  0.000  0.000  0.000
tot    0.000  0.000  0.000  0.000  0.000  0.000  0.000  0.000  0.000  0.000
 
band    13 # energy   12.52751519 # occ.  0.00000000
 
ion      s     py     pz     px    dxy    dyz    dz2    dxz  x2-y2    tot
    1  0.000  0.000  0.000  0.000  0.000  0.000  0.000  0.000  0.000  0.000
    2  0.000  0.000  0.000  0.000  0.000  0.000  0.000  0.000  0.000  0.000
tot    0.000  0.000  0.000  0.000  0.000  0.000  0.000  0.000  0.000  0.000
 
band    14 # energy   14.09030315 # occ.  0.00000000
 
ion      s     py     pz     px    dxy    dyz    dz2    dxz  x2-y2    tot
    1  0.000  0.000  0.000  0.000  0.000  0.000  0.000  0.000  0.000  0.000
    2  0.000  0.000  0.000  0.000  0.000  0.000  0.000  0.000  0.000  0.000
tot    0.000  0.000  0.000  0.000  0.000  0.000  0.000  0.000  0.000  0.000
 
band    15 # energy   16.29308665 # occ.  0.00000000
 
ion      s     py     pz     px    dxy    dyz    dz2    dxz  x2-y2    tot
    1  0.000  0.127  0.030  0.194  0.000  0.000  0.000  0.000  0.000  0.351
    2  0.000  0.010  0.002  0.015  0.000  0.000  0.000  0.000  0.000  0.027
tot    0.000  0.137  0.032  0.208  0.000  0.000  0.000  0.000  0.000  0.377
 
band    16 # energy   16.29314954 # occ.  0.00000000
 
ion      s     py     pz     px    dxy    dyz    dz2    dxz  x2-y2    tot
    1  0.000  0.062  0.277  0.011  0.000  0.000  0.000  0.000  0.000  0.351
    2  0.000  0.005  0.021  0.001  0.000  0.000  0.000  0.000  0.000  0.027
tot    0.000  0.067  0.298  0.012  0.000  0.000  0.000  0.000  0.000  0.377
 

 k-point     2 :    0.14285714-0.00000000 0.00000000     weight = 0.02332362

band     1 # energy  -21.58947237 # occ.  1.00000000
 
ion      s     py     pz     px    dxy    dyz    dz2    dxz  x2-y2    tot
    1  0.000  0.109  0.000  0.880  0.000  0.000  0.000  0.000  0.000  0.989
    2  0.000  0.000  0.000  0.000  0.000  0.000  0.000  0.000  0.000  0.000
tot    0.000  0.109  0.000  0.880  0.000  0.000  0.000  0.000  0.000  0.990
 
band     2 # energy  -21.58464281 # occ.  1.00000000
 
ion      s     py     pz     px    dxy    dyz    dz2    dxz  x2-y2    tot
    1  0.000  0.204  0.761  0.025  0.000  0.000  0.000  0.000  0.000  0.990
    2  0.000  0.000  0.000  0.000  0.000  0.000  0.000  0.000  0.000  0.000
tot    0.000  0.204  0.761  0.025  0.000  0.000  0.000  0.000  0.000  0.990
 
band     3 # energy  -21.58462188 # occ.  1.00000000
 
ion      s     py     pz     px    dxy    dyz    dz2    dxz  x2-y2    tot
    1  0.000  0.676  0.229  0.084  0.000  0.000  0.000  0.000  0.000  0.990
    2  0.000  0.000  0.000  0.000  0.000  0.000  0.000  0.000  0.000  0.000
tot    0.000  0.676  0.229  0.084  0.000  0.000  0.000  0.000  0.000  0.990
 
band     4 # energy  -13.35418319 # occ.  1.00000000
 
ion      s     py     pz     px    dxy    dyz    dz2    dxz  x2-y2    tot
    1  0.004  0.000  0.000  0.001  0.000  0.000  0.000  0.000  0.000  0.006
    2  0.763  0.000  0.000  0.000  0.000  0.000  0.000  0.000  0.000  0.763
tot    0.768  0.000  0.000  0.001  0.000  0.000  0.000  0.000  0.000  0.769
 
band     5 # energy   -1.22031304 # occ.  1.00000000
 
ion      s     py     pz     px    dxy    dyz    dz2    dxz  x2-y2    tot
    1  0.012  0.000  0.000  0.003  0.000  0.000  0.000  0.000  0.000  0.015
    2  0.007  0.069  0.000  0.550  0.000  0.000  0.000  0.000  0.000  0.626
tot    0.019  0.069  0.000  0.553  0.000  0.000  0.000  0.000  0.000  0.641
 
band     6 # energy   -0.81096464 # occ.  1.00000000
 
ion      s     py     pz     px    dxy    dyz    dz2    dxz  x2-y2    tot
    1  0.000  0.001  0.003  0.000  0.000  0.000  0.000  0.000  0.000  0.004
    2  0.000  0.164  0.498  0.020  0.000  0.000  0.000  0.000  0.000  0.682
tot    0.000  0.165  0.501  0.021  0.000  0.000  0.000  0.000  0.000  0.686
 
band     7 # energy   -0.81095927 # occ.  1.00000000
 
ion      s     py     pz     px    dxy    dyz    dz2    dxz  x2-y2    tot
    1  0.000  0.003  0.001  0.000  0.000  0.000  0.000  0.000  0.000  0.004
    2  0.000  0.443  0.184  0.055  0.000  0.000  0.000  0.000  0.000  0.682
tot    0.000  0.445  0.185  0.056  0.000  0.000  0.000  0.000  0.000  0.686
 
band     8 # energy    4.94091710 # occ.  0.00000000
 
ion      s     py     pz     px    dxy    dyz    dz2    dxz  x2-y2    tot
    1  0.142  0.001  0.000  0.007  0.000  0.000  0.000  0.000  0.000  0.151
    2  0.124  0.006  0.000  0.051  0.000  0.000  0.000  0.000  0.000  0.182
tot    0.266  0.007  0.000  0.059  0.000  0.000  0.000  0.000  0.000  0.332
 
band     9 # energy    9.70862771 # occ.  0.00000000
 
ion      s     py     pz     px    dxy    dyz    dz2    dxz  x2-y2    tot
    1  0.004  0.001  0.000  0.010  0.000  0.000  0.000  0.000  0.000  0.016
    2  0.000  0.003  0.000  0.022  0.000  0.000  0.000  0.000  0.000  0.025
tot    0.004  0.004  0.000  0.033  0.000  0.000  0.000  0.000  0.000  0.041
 
band    10 # energy   10.59819604 # occ.  0.00000000
 
ion      s     py     pz     px    dxy    dyz    dz2    dxz  x2-y2    tot
    1  0.000  0.008  0.002  0.001  0.000  0.000  0.000  0.000  0.000  0.011
    2  0.000  0.003  0.001  0.000  0.000  0.000  0.000  0.000  0.000  0.005
tot    0.000  0.012  0.003  0.001  0.000  0.000  0.000  0.000  0.000  0.016
 
band    11 # energy   10.59820311 # occ.  0.00000000
 
ion      s     py     pz     px    dxy    dyz    dz2    dxz  x2-y2    tot
    1  0.000  0.002  0.009  0.000  0.000  0.000  0.000  0.000  0.000  0.011
    2  0.000  0.001  0.004  0.000  0.000  0.000  0.000  0.000  0.000  0.005
tot    0.000  0.003  0.013  0.000  0.000  0.000  0.000  0.000  0.000  0.016
 
band    12 # energy   12.23306583 # occ.  0.00000000
 
ion      s     py     pz     px    dxy    dyz    dz2    dxz  x2-y2    tot
    1  0.000  0.036  0.012  0.005  0.000  0.000  0.000  0.000  0.000  0.052
    2  0.000  0.000  0.000  0.000  0.000  0.000  0.000  0.000  0.000  0.001
tot    0.000  0.037  0.012  0.005  0.000  0.000  0.000  0.000  0.000  0.053
 
band    13 # energy   12.23308667 # occ.  0.00000000
 
ion      s     py     pz     px    dxy    dyz    dz2    dxz  x2-y2    tot
    1  0.000  0.010  0.041  0.001  0.000  0.000  0.000  0.000  0.000  0.052
    2  0.000  0.000  0.000  0.000  0.000  0.000  0.000  0.000  0.000  0.001
tot    0.000  0.011  0.041  0.001  0.000  0.000  0.000  0.000  0.000  0.053
 
band    14 # energy   15.11168148 # occ.  0.00000000
 
ion      s     py     pz     px    dxy    dyz    dz2    dxz  x2-y2    tot
    1  0.032  0.010  0.000  0.078  0.000  0.000  0.000  0.000  0.000  0.119
    2  0.000  0.001  0.000  0.010  0.000  0.000  0.000  0.000  0.000  0.011
tot    0.032  0.011  0.000  0.087  0.000  0.000  0.000  0.000  0.000  0.130
 
band    15 # energy   16.26347890 # occ.  0.00000000
 
ion      s     py     pz     px    dxy    dyz    dz2    dxz  x2-y2    tot
    1  0.069  0.017  0.000  0.138  0.000  0.000  0.000  0.000  0.000  0.224
    2  0.001  0.001  0.000  0.008  0.000  0.000  0.000  0.000  0.000  0.010
tot    0.070  0.018  0.000  0.146  0.000  0.000  0.000  0.000  0.000  0.234
 
band    16 # energy   17.32253847 # occ.  0.00000000
 
ion      s     py     pz     px    dxy    dyz    dz2    dxz  x2-y2    tot
    1  0.000  0.200  0.056  0.025  0.000  0.000  0.000  0.000  0.000  0.282
    2  0.000  0.022  0.006  0.003  0.000  0.000  0.000  0.000  0.000  0.031
tot    0.000  0.222  0.062  0.028  0.000  0.000  0.000  0.000  0.000  0.312
 

 k-point     3 :    0.28571429-0.00000000 0.00000000     weight = 0.02332362

band     1 # energy  -21.60170369 # occ.  1.00000000
 
ion      s     py     pz     px    dxy    dyz    dz2    dxz  x2-y2    tot
    1  0.000  0.110  0.000  0.878  0.000  0.000  0.000  0.000  0.000  0.987
    2  0.001  0.000  0.000  0.000  0.000  0.000  0.000  0.000  0.000  0.001
tot    0.001  0.110  0.000  0.878  0.000  0.000  0.000  0.000  0.000  0.988
 
band     2 # energy  -21.58566532 # occ.  1.00000000
 
ion      s     py     pz     px    dxy    dyz    dz2    dxz  x2-y2    tot
    1  0.000  0.203  0.761  0.025  0.000  0.000  0.000  0.000  0.000  0.990
    2  0.000  0.000  0.000  0.000  0.000  0.000  0.000  0.000  0.000  0.000
tot    0.000  0.203  0.761  0.025  0.000  0.000  0.000  0.000  0.000  0.990
 
band     3 # energy  -21.58564436 # occ.  1.00000000
 
ion      s     py     pz     px    dxy    dyz    dz2    dxz  x2-y2    tot
    1  0.000  0.677  0.229  0.085  0.000  0.000  0.000  0.000  0.000  0.990
    2  0.000  0.000  0.000  0.000  0.000  0.000  0.000  0.000  0.000  0.000
tot    0.000  0.677  0.229  0.085  0.000  0.000  0.000  0.000  0.000  0.990
 
band     4 # energy  -13.21565371 # occ.  1.00000000
 
ion      s     py     pz     px    dxy    dyz    dz2    dxz  x2-y2    tot
    1  0.002  0.000  0.000  0.003  0.000  0.000  0.000  0.000  0.000  0.006
    2  0.776  0.000  0.000  0.000  0.000  0.000  0.000  0.000  0.000  0.777
tot    0.779  0.000  0.000  0.003  0.000  0.000  0.000  0.000  0.000  0.782
 
band     5 # energy   -2.04537052 # occ.  1.00000000
 
ion      s     py     pz     px    dxy    dyz    dz2    dxz  x2-y2    tot
    1  0.026  0.000  0.000  0.001  0.000  0.000  0.000  0.000  0.000  0.027
    2  0.007  0.060  0.000  0.477  0.000  0.000  0.000  0.000  0.000  0.544
tot    0.033  0.060  0.000  0.478  0.000  0.000  0.000  0.000  0.000  0.571
 
band     6 # energy   -0.92254799 # occ.  1.00000000
 
ion      s     py     pz     px    dxy    dyz    dz2    dxz  x2-y2    tot
    1  0.000  0.000  0.002  0.000  0.000  0.000  0.000  0.000  0.000  0.002
    2  0.000  0.130  0.526  0.016  0.000  0.000  0.000  0.000  0.000  0.672
tot    0.000  0.130  0.527  0.016  0.000  0.000  0.000  0.000  0.000  0.674
 
band     7 # energy   -0.92254359 # occ.  1.00000000
 
ion      s     py     pz     px    dxy    dyz    dz2    dxz  x2-y2    tot
    1  0.000  0.001  0.000  0.000  0.000  0.000  0.000  0.000  0.000  0.002
    2  0.000  0.467  0.146  0.058  0.000  0.000  0.000  0.000  0.000  0.672
tot    0.000  0.469  0.146  0.059  0.000  0.000  0.000  0.000  0.000  0.674
 
band     8 # energy    6.02629407 # occ.  0.00000000
 
ion      s     py     pz     px    dxy    dyz    dz2    dxz  x2-y2    tot
    1  0.087  0.004  0.000  0.033  0.000  0.000  0.000  0.000  0.000  0.124
    2  0.093  0.008  0.000  0.065  0.000  0.000  0.000  0.000  0.000  0.166
tot    0.180  0.012  0.000  0.098  0.000  0.000  0.000  0.000  0.000  0.290
 
band     9 # energy    9.21529034 # occ.  0.00000000
 
ion      s     py     pz     px    dxy    dyz    dz2    dxz  x2-y2    tot
    1  0.056  0.002  0.000  0.012  0.000  0.000  0.000  0.000  0.000  0.069
    2  0.002  0.015  0.000  0.117  0.000  0.000  0.000  0.000  0.000  0.134
tot    0.058  0.016  0.000  0.130  0.000  0.000  0.000  0.000  0.000  0.203
 
band    10 # energy   10.56609840 # occ.  0.00000000
 
ion      s     py     pz     px    dxy    dyz    dz2    dxz  x2-y2    tot
    1  0.000  0.051  0.027  0.006  0.000  0.000  0.000  0.000  0.000  0.084
    2  0.000  0.002  0.001  0.000  0.000  0.000  0.000  0.000  0.000  0.003
tot    0.000  0.053  0.028  0.007  0.000  0.000  0.000  0.000  0.000  0.088
 
band    11 # energy   10.56610030 # occ.  0.00000000
 
ion      s     py     pz     px    dxy    dyz    dz2    dxz  x2-y2    tot
    1  0.000  0.024  0.057  0.003  0.000  0.000  0.000  0.000  0.000  0.084
    2  0.000  0.001  0.002  0.000  0.000  0.000  0.000  0.000  0.000  0.003
tot    0.000  0.025  0.060  0.003  0.000  0.000  0.000  0.000  0.000  0.088
 
band    12 # energy   12.78051250 # occ.  0.00000000
 
ion      s     py     pz     px    dxy    dyz    dz2    dxz  x2-y2    tot
    1  0.000  0.026  0.009  0.003  0.000  0.000  0.000  0.000  0.000  0.038
    2  0.000  0.009  0.003  0.001  0.000  0.000  0.000  0.000  0.000  0.013
tot    0.000  0.035  0.012  0.004  0.000  0.000  0.000  0.000  0.000  0.051
 
band    13 # energy   12.78055346 # occ.  0.00000000
 
ion      s     py     pz     px    dxy    dyz    dz2    dxz  x2-y2    tot
    1  0.000  0.008  0.029  0.001  0.000  0.000  0.000  0.000  0.000  0.038
    2  0.000  0.003  0.010  0.000  0.000  0.000  0.000  0.000  0.000  0.013
tot    0.000  0.011  0.039  0.001  0.000  0.000  0.000  0.000  0.000  0.051
 
band    14 # energy   14.62928222 # occ.  0.00000000
 
ion      s     py     pz     px    dxy    dyz    dz2    dxz  x2-y2    tot
    1  0.184  0.010  0.000  0.082  0.000  0.000  0.000  0.000  0.000  0.277
    2  0.003  0.001  0.000  0.009  0.000  0.000  0.000  0.000  0.000  0.013
tot    0.188  0.011  0.000  0.091  0.000  0.000  0.000  0.000  0.000  0.290
 
band    15 # energy   18.97945982 # occ.  0.00000000
 
ion      s     py     pz     px    dxy    dyz    dz2    dxz  x2-y2    tot
    1  0.027  0.001  0.000  0.014  0.000  0.000  0.000  0.000  0.000  0.042
    2  0.006  0.000  0.000  0.002  0.000  0.000  0.000  0.000  0.000  0.007
tot    0.033  0.001  0.000  0.015  0.000  0.000  0.000  0.000  0.000  0.049
 
band    16 # energy   19.54338470 # occ.  0.00000000
 
ion      s     py     pz     px    dxy    dyz    dz2    dxz  x2-y2    tot
    1  0.009  0.022  0.000  0.032  0.000  0.000  0.000  0.000  0.000  0.065
    2  0.033  0.018  0.000  0.060  0.000  0.000  0.000  0.000  0.000  0.111
tot    0.042  0.040  0.001  0.092  0.000  0.000  0.000  0.000  0.000  0.175
 

 k-point     4 :    0.42857143 0.00000000 0.00000000     weight = 0.02332362

band     1 # energy  -21.61135518 # occ.  1.00000000
 
ion      s     py     pz     px    dxy    dyz    dz2    dxz  x2-y2    tot
    1  0.000  0.109  0.000  0.876  0.000  0.000  0.000  0.000  0.000  0.986
    2  0.001  0.000  0.000  0.000  0.000  0.000  0.000  0.000  0.000  0.001
tot    0.001  0.109  0.000  0.876  0.000  0.000  0.000  0.000  0.000  0.987
 
band     2 # energy  -21.58627376 # occ.  1.00000000
 
ion      s     py     pz     px    dxy    dyz    dz2    dxz  x2-y2    tot
    1  0.000  0.203  0.761  0.025  0.000  0.000  0.000  0.000  0.000  0.990
    2  0.000  0.000  0.000  0.000  0.000  0.000  0.000  0.000  0.000  0.000
tot    0.000  0.203  0.761  0.025  0.000  0.000  0.000  0.000  0.000  0.990
 
band     3 # energy  -21.58625283 # occ.  1.00000000
 
ion      s     py     pz     px    dxy    dyz    dz2    dxz  x2-y2    tot
    1  0.000  0.677  0.229  0.085  0.000  0.000  0.000  0.000  0.000  0.990
    2  0.000  0.000  0.000  0.000  0.000  0.000  0.000  0.000  0.000  0.000
tot    0.000  0.677  0.229  0.085  0.000  0.000  0.000  0.000  0.000  0.990
 
band     4 # energy  -13.09956418 # occ.  1.00000000
 
ion      s     py     pz     px    dxy    dyz    dz2    dxz  x2-y2    tot
    1  0.000  0.001  0.000  0.005  0.000  0.000  0.000  0.000  0.000  0.006
    2  0.788  0.000  0.000  0.000  0.000  0.000  0.000  0.000  0.000  0.788
tot    0.789  0.001  0.000  0.005  0.000  0.000  0.000  0.000  0.000  0.795
 
band     5 # energy   -2.59431254 # occ.  1.00000000
 
ion      s     py     pz     px    dxy    dyz    dz2    dxz  x2-y2    tot
    1  0.032  0.000  0.000  0.000  0.000  0.000  0.000  0.000  0.000  0.032
    2  0.001  0.055  0.000  0.442  0.000  0.000  0.000  0.000  0.000  0.499
tot    0.033  0.055  0.000  0.443  0.000  0.000  0.000  0.000  0.000  0.531
 
band     6 # energy   -1.00767347 # occ.  1.00000000
 
ion      s     py     pz     px    dxy    dyz    dz2    dxz  x2-y2    tot
    1  0.000  0.000  0.000  0.000  0.000  0.000  0.000  0.000  0.000  0.000
    2  0.000  0.126  0.523  0.016  0.000  0.000  0.000  0.000  0.000  0.664
tot    0.000  0.126  0.523  0.016  0.000  0.000  0.000  0.000  0.000  0.665
 
band     7 # energy   -1.00767030 # occ.  1.00000000
 
ion      s     py     pz     px    dxy    dyz    dz2    dxz  x2-y2    tot
    1  0.000  0.000  0.000  0.000  0.000  0.000  0.000  0.000  0.000  0.000
    2  0.000  0.465  0.142  0.058  0.000  0.000  0.000  0.000  0.000  0.664
tot    0.000  0.465  0.142  0.058  0.000  0.000  0.000  0.000  0.000  0.665
 
band     8 # energy    6.46980633 # occ.  0.00000000
 
ion      s     py     pz     px    dxy    dyz    dz2    dxz  x2-y2    tot
    1  0.011  0.008  0.000  0.063  0.000  0.000  0.000  0.000  0.000  0.081
    2  0.066  0.001  0.000  0.008  0.000  0.000  0.000  0.000  0.000  0.075
tot    0.077  0.009  0.000  0.071  0.000  0.000  0.000  0.000  0.000  0.156
 
band     9 # energy    9.67140741 # occ.  0.00000000
 
ion      s     py     pz     px    dxy    dyz    dz2    dxz  x2-y2    tot
    1  0.163  0.000  0.000  0.001  0.000  0.000  0.000  0.000  0.000  0.165
    2  0.002  0.033  0.000  0.268  0.000  0.000  0.000  0.000  0.000  0.303
tot    0.165  0.034  0.000  0.269  0.000  0.000  0.000  0.000  0.000  0.468
 
band    10 # energy   10.25968955 # occ.  0.00000000
 
ion      s     py     pz     px    dxy    dyz    dz2    dxz  x2-y2    tot
    1  0.000  0.082  0.031  0.010  0.000  0.000  0.000  0.000  0.000  0.124
    2  0.000  0.000  0.000  0.000  0.000  0.000  0.000  0.000  0.000  0.000
tot    0.000  0.083  0.031  0.010  0.000  0.000  0.000  0.000  0.000  0.124
 
band    11 # energy   10.25969074 # occ.  0.00000000
 
ion      s     py     pz     px    dxy    dyz    dz2    dxz  x2-y2    tot
    1  0.000  0.027  0.093  0.003  0.000  0.000  0.000  0.000  0.000  0.124
    2  0.000  0.000  0.000  0.000  0.000  0.000  0.000  0.000  0.000  0.000
tot    0.000  0.027  0.093  0.003  0.000  0.000  0.000  0.000  0.000  0.124
 
band    12 # energy   14.20744056 # occ.  0.00000000
 
ion      s     py     pz     px    dxy    dyz    dz2    dxz  x2-y2    tot
    1  0.214  0.002  0.000  0.012  0.000  0.000  0.000  0.000  0.000  0.228
    2  0.002  0.000  0.000  0.000  0.000  0.000  0.000  0.000  0.000  0.002
tot    0.216  0.002  0.000  0.012  0.000  0.000  0.000  0.000  0.000  0.230
 
band    13 # energy   14.61698706 # occ.  0.00000000
 
ion      s     py     pz     px    dxy    dyz    dz2    dxz  x2-y2    tot
    1  0.000  0.008  0.017  0.001  0.000  0.000  0.000  0.000  0.000  0.026
    2  0.000  0.006  0.014  0.001  0.000  0.000  0.000  0.000  0.000  0.021
tot    0.000  0.015  0.031  0.002  0.000  0.000  0.000  0.000  0.000  0.048
 
band    14 # energy   14.61700573 # occ.  0.00000000
 
ion      s     py     pz     px    dxy    dyz    dz2    dxz  x2-y2    tot
    1  0.000  0.015  0.009  0.002  0.000  0.000  0.000  0.000  0.000  0.027
    2  0.000  0.012  0.007  0.002  0.000  0.000  0.000  0.000  0.000  0.021
tot    0.000  0.028  0.016  0.003  0.000  0.000  0.000  0.000  0.000  0.047
 
band    15 # energy   17.16193549 # occ.  0.00000000
 
ion      s     py     pz     px    dxy    dyz    dz2    dxz  x2-y2    tot
    1  0.000  0.007  0.000  0.059  0.000  0.000  0.000  0.000  0.000  0.067
    2  0.071  0.002  0.000  0.015  0.000  0.000  0.000  0.000  0.000  0.087
tot    0.071  0.009  0.000  0.074  0.000  0.000  0.000  0.000  0.000  0.154
 
band    16 # energy   17.41858621 # occ.  0.00000000
 
ion      s     py     pz     px    dxy    dyz    dz2    dxz  x2-y2    tot
    1  0.000  0.003  0.008  0.000  0.000  0.000  0.000  0.000  0.000  0.011
    2  0.000  0.017  0.048  0.002  0.000  0.000  0.000  0.000  0.000  0.067
tot    0.000  0.020  0.055  0.002  0.000  0.000  0.000  0.000  0.000  0.078
 

 k-point     5 :    0.14285714 0.14285714 0.00000000     weight = 0.01749271

band     1 # energy  -21.58905436 # occ.  1.00000000
 
ion      s     py     pz     px    dxy    dyz    dz2    dxz  x2-y2    tot
    1  0.000  0.330  0.000  0.660  0.000  0.000  0.000  0.000  0.000  0.989
    2  0.000  0.000  0.000  0.000  0.000  0.000  0.000  0.000  0.000  0.000
tot    0.000  0.330  0.000  0.660  0.000  0.000  0.000  0.000  0.000  0.990
 
band     2 # energy  -21.58570940 # occ.  1.00000000
 
ion      s     py     pz     px    dxy    dyz    dz2    dxz  x2-y2    tot
    1  0.000  0.000  0.990  0.000  0.000  0.000  0.000  0.000  0.000  0.990
    2  0.000  0.000  0.000  0.000  0.000  0.000  0.000  0.000  0.000  0.000
tot    0.000  0.000  0.990  0.000  0.000  0.000  0.000  0.000  0.000  0.990
 
band     3 # energy  -21.58569294 # occ.  1.00000000
 
ion      s     py     pz     px    dxy    dyz    dz2    dxz  x2-y2    tot
    1  0.000  0.660  0.000  0.330  0.000  0.000  0.000  0.000  0.000  0.990
    2  0.000  0.000  0.000  0.000  0.000  0.000  0.000  0.000  0.000  0.000
tot    0.000  0.660  0.000  0.330  0.000  0.000  0.000  0.000  0.000  0.990
 
band     4 # energy  -13.33631402 # occ.  1.00000000
 
ion      s     py     pz     px    dxy    dyz    dz2    dxz  x2-y2    tot
    1  0.004  0.000  0.000  0.001  0.000  0.000  0.000  0.000  0.000  0.005
    2  0.765  0.000  0.000  0.000  0.000  0.000  0.000  0.000  0.000  0.765
tot    0.769  0.000  0.000  0.001  0.000  0.000  0.000  0.000  0.000  0.770
 
band     5 # energy   -1.24242590 # occ.  1.00000000
 
ion      s     py     pz     px    dxy    dyz    dz2    dxz  x2-y2    tot
    1  0.013  0.000  0.000  0.000  0.000  0.000  0.000  0.000  0.000  0.013
    2  0.008  0.205  0.000  0.410  0.000  0.000  0.000  0.000  0.000  0.623
tot    0.021  0.205  0.000  0.410  0.000  0.000  0.000  0.000  0.000  0.637
 
band     6 # energy   -0.88247558 # occ.  1.00000000
 
ion      s     py     pz     px    dxy    dyz    dz2    dxz  x2-y2    tot
    1  0.000  0.000  0.006  0.000  0.000  0.000  0.000  0.000  0.000  0.006
    2  0.000  0.000  0.673  0.000  0.000  0.000  0.000  0.000  0.000  0.673
tot    0.000  0.000  0.679  0.000  0.000  0.000  0.000  0.000  0.000  0.679
 
band     7 # energy   -0.88247103 # occ.  1.00000000
 
ion      s     py     pz     px    dxy    dyz    dz2    dxz  x2-y2    tot
    1  0.000  0.004  0.000  0.002  0.000  0.000  0.000  0.000  0.000  0.006
    2  0.000  0.449  0.000  0.224  0.000  0.000  0.000  0.000  0.000  0.673
tot    0.000  0.453  0.000  0.226  0.000  0.000  0.000  0.000  0.000  0.679
 
band     8 # energy    5.14487470 # occ.  0.00000000
 
ion      s     py     pz     px    dxy    dyz    dz2    dxz  x2-y2    tot
    1  0.144  0.002  0.000  0.004  0.000  0.000  0.000  0.000  0.000  0.150
    2  0.119  0.026  0.000  0.052  0.000  0.000  0.000  0.000  0.000  0.196
tot    0.263  0.028  0.000  0.056  0.000  0.000  0.000  0.000  0.000  0.347
 
band     9 # energy    9.36002399 # occ.  0.00000000
 
ion      s     py     pz     px    dxy    dyz    dz2    dxz  x2-y2    tot
    1  0.000  0.000  0.000  0.000  0.000  0.000  0.000  0.000  0.000  0.000
    2  0.000  0.000  0.000  0.000  0.000  0.000  0.000  0.000  0.000  0.000
tot    0.000  0.000  0.000  0.000  0.000  0.000  0.000  0.000  0.000  0.000
 
band    10 # energy   10.83433094 # occ.  0.00000000
 
ion      s     py     pz     px    dxy    dyz    dz2    dxz  x2-y2    tot
    1  0.000  0.013  0.000  0.007  0.000  0.000  0.000  0.000  0.000  0.020
    2  0.000  0.015  0.000  0.008  0.000  0.000  0.000  0.000  0.000  0.023
tot    0.000  0.028  0.000  0.014  0.000  0.000  0.000  0.000  0.000  0.042
 
band    11 # energy   10.83435005 # occ.  0.00000000
 
ion      s     py     pz     px    dxy    dyz    dz2    dxz  x2-y2    tot
    1  0.000  0.000  0.020  0.000  0.000  0.000  0.000  0.000  0.000  0.020
    2  0.000  0.000  0.023  0.000  0.000  0.000  0.000  0.000  0.000  0.023
tot    0.000  0.000  0.042  0.000  0.000  0.000  0.000  0.000  0.000  0.042
 
band    12 # energy   11.32264748 # occ.  0.00000000
 
ion      s     py     pz     px    dxy    dyz    dz2    dxz  x2-y2    tot
    1  0.019  0.035  0.000  0.069  0.000  0.000  0.000  0.000  0.000  0.123
    2  0.001  0.001  0.000  0.001  0.000  0.000  0.000  0.000  0.000  0.002
tot    0.020  0.035  0.000  0.071  0.000  0.000  0.000  0.000  0.000  0.125
 
band    13 # energy   12.81838606 # occ.  0.00000000
 
ion      s     py     pz     px    dxy    dyz    dz2    dxz  x2-y2    tot
    1  0.000  0.000  0.000  0.000  0.000  0.000  0.000  0.000  0.000  0.000
    2  0.000  0.000  0.000  0.000  0.000  0.000  0.000  0.000  0.000  0.000
tot    0.000  0.000  0.000  0.000  0.000  0.000  0.000  0.000  0.000  0.000
 
band    14 # energy   15.82370640 # occ.  0.00000000
 
ion      s     py     pz     px    dxy    dyz    dz2    dxz  x2-y2    tot
    1  0.000  0.000  0.000  0.000  0.000  0.000  0.000  0.000  0.000  0.000
    2  0.000  0.000  0.000  0.000  0.000  0.000  0.000  0.000  0.000  0.000
tot    0.000  0.000  0.000  0.000  0.000  0.000  0.000  0.000  0.000  0.000
 
band    15 # energy   16.83538101 # occ.  0.00000000
 
ion      s     py     pz     px    dxy    dyz    dz2    dxz  x2-y2    tot
    1  0.000  0.217  0.000  0.109  0.000  0.000  0.000  0.000  0.000  0.326
    2  0.000  0.016  0.000  0.008  0.000  0.000  0.000  0.000  0.000  0.024
tot    0.000  0.233  0.000  0.117  0.000  0.000  0.000  0.000  0.000  0.350
 
band    16 # energy   16.83543563 # occ.  0.00000000
 
ion      s     py     pz     px    dxy    dyz    dz2    dxz  x2-y2    tot
    1  0.000  0.000  0.326  0.000  0.000  0.000  0.000  0.000  0.000  0.326
    2  0.000  0.000  0.024  0.000  0.000  0.000  0.000  0.000  0.000  0.024
tot    0.000  0.000  0.350  0.000  0.000  0.000  0.000  0.000  0.000  0.350
 

 k-point     6 :    0.28571429 0.14285714 0.00000000     weight = 0.06997085

band     1 # energy  -21.59774973 # occ.  1.00000000
 
ion      s     py     pz     px    dxy    dyz    dz2    dxz  x2-y2    tot
    1  0.000  0.000  0.000  0.988  0.000  0.000  0.000  0.000  0.000  0.988
    2  0.001  0.000  0.000  0.000  0.000  0.000  0.000  0.000  0.000  0.001
tot    0.001  0.000  0.000  0.988  0.000  0.000  0.000  0.000  0.000  0.989
 
band     2 # energy  -21.58714041 # occ.  1.00000000
 
ion      s     py     pz     px    dxy    dyz    dz2    dxz  x2-y2    tot
    1  0.000  0.000  0.990  0.000  0.000  0.000  0.000  0.000  0.000  0.990
    2  0.000  0.000  0.000  0.000  0.000  0.000  0.000  0.000  0.000  0.000
tot    0.000  0.000  0.990  0.000  0.000  0.000  0.000  0.000  0.000  0.990