<?xml version="1.0" encoding="ISO-8859-1"?>
<modeling>
 <generator>
  <i name="program" type="string">vasp </i>
  <i name="version" type="string">6.2.1  </i>
  <i name="subversion" type="string">16May21 (build Jul 07 2021 13:10:27) complex                          parallel </i>
  <i name="platform" type="string">LinuxIFC </i>
  <i name="date" type="string">2022 02 01 </i>
  <i name="time" type="string">15:30:02 </i>
 </generator>
 <incar>
  <i type="int" name="ISTART">     0</i>
  <i type="string" name="PREC">Accurate</i>
  <i type="string" name="ALGO">Fast</i>
  <i type="int" name="ISPIN">     2</i>
  <i type="int" name="ICHARG">     2</i>
  <i type="int" name="NELM">   100</i>
  <i type="int" name="IBRION">     2</i>
  <i name="EDIFF">      0.00010000</i>
  <i type="int" name="NSW">     0</i>
  <i type="string" name="LREAL">Auto</i>
  <i type="int" name="ISMEAR">    -5</i>
  <i name="SIGMA">      0.05000000</i>
  <i type="logical" name="LWAVE"> F  </i>
  <i type="int" name="LORBIT">    11</i>
  <i type="logical" name="LAECHG"> T  </i>
 </incar>
 <primitive_cell>
  <structure name="primitive_cell" >
   <crystal>
    <varray name="basis" >
     <v>       3.45976223      -0.00000000       1.99749523 </v>
     <v>       1.15325408       3.26189553       1.99749523 </v>
     <v>      -0.00000000      -0.00000000       3.99498948 </v>
    </varray>
    <i name="volume">     45.08498624 </i>
    <varray name="rec_basis" >
     <v>       0.28903720      -0.10219007       0.00000000 </v>
     <v>       0.00000000       0.30657021       0.00000000 </v>
     <v>      -0.14451864      -0.10219010       0.25031355 </v>
    </varray>
   </crystal>
   <varray name="positions" >
    <v>       0.00000000       0.00000000       0.00000000 </v>
    <v>       0.50000000       0.50000000       0.50000000 </v>
   </varray>
  </structure>
  <varray name="primitive_index" >
   <v type="int" >        1 </v>
   <v type="int" >        2 </v>
  </varray>
 </primitive_cell>
 <kpoints>
  <generation param="Gamma">
   <v type="int" name="divisions">       7        7        7 </v>
   <v name="usershift">      0.00000000       0.00000000       0.00000000 </v>
   <v name="genvec1">      0.14285714      -0.00000000       0.00000000 </v>
   <v name="genvec2">     -0.00000000       0.14285714       0.00000000 </v>
   <v name="genvec3">      0.00000000       0.00000000       0.14285714 </v>
   <v name="shift">      0.00000000       0.00000000       0.00000000 </v>
  </generation>
  <varray name="kpointlist" >
   <v>       0.00000000       0.00000000       0.00000000 </v>
   <v>       0.14285714      -0.00000000       0.00000000 </v>
   <v>       0.28571429      -0.00000000       0.00000000 </v>
   <v>       0.42857143       0.00000000       0.00000000 </v>
   <v>       0.14285714       0.14285714       0.00000000 </v>
   <v>       0.28571429       0.14285714       0.00000000 </v>
   <v>       0.42857143       0.14285714       0.00000000 </v>
   <v>      -0.42857143       0.14285714      -0.00000000 </v>
   <v>      -0.28571429       0.14285714      -0.00000000 </v>
   <v>      -0.14285714       0.14285714      -0.00000000 </v>
   <v>       0.28571429       0.28571429       0.00000000 </v>
   <v>       0.42857143       0.28571429       0.00000000 </v>
   <v>      -0.42857143       0.28571429      -0.00000000 </v>
   <v>      -0.28571429       0.28571429      -0.00000000 </v>
   <v>       0.42857143       0.42857143       0.00000000 </v>
   <v>      -0.42857143       0.42857143      -0.00000000 </v>
   <v>       0.42857143       0.28571429       0.14285714 </v>
   <v>      -0.42857143       0.28571429       0.14285714 </v>
   <v>      -0.42857143       0.42857143       0.14285714 </v>
   <v>      -0.28571429       0.42857143       0.14285714 </v>
  </varray>
  <varray name="weights" >
   <v>       0.00291545 </v>
   <v>       0.02332362 </v>
   <v>       0.02332362 </v>
   <v>       0.02332362 </v>
   <v>       0.01749271 </v>
   <v>       0.06997085 </v>
   <v>       0.06997085 </v>
   <v>       0.06997085 </v>
   <v>       0.06997085 </v>
   <v>       0.03498542 </v>
   <v>       0.01749271 </v>
   <v>       0.06997085 </v>
   <v>       0.06997085 </v>
   <v>       0.03498542 </v>
   <v>       0.01749271 </v>
   <v>       0.03498542 </v>
   <v>       0.06997085 </v>
   <v>       0.13994169 </v>
   <v>       0.06997085 </v>
   <v>       0.06997085 </v>
  </varray>
  <varray name="tetrahedronlist"  type="int" >
   <v type="int" >       24        1        2        2        5 </v>
   <v type="int" >       48        2        5        6       10 </v>
   <v type="int" >       48        2        3        6       10 </v>
   <v type="int" >       24        2        2        5       10 </v>
   <v type="int" >       48        3        6        7        9 </v>
   <v type="int" >       48        3        4        7        9 </v>
   <v type="int" >       48        3        6        9       10 </v>
   <v type="int" >       48        4        7        8        8 </v>
   <v type="int" >       24        4        4        8        8 </v>
   <v type="int" >       48        4        7        8        9 </v>
   <v type="int" >       24        5        6        6       11 </v>
   <v type="int" >       24        5        6        6       10 </v>
   <v type="int" >       48        6       11       12       17 </v>
   <v type="int" >       48        6        7       12       17 </v>
   <v type="int" >       48        6        7        9       17 </v>
   <v type="int" >       24        6        6       11       17 </v>
   <v type="int" >       24        6        6       10       17 </v>
   <v type="int" >       48        6        9       10       17 </v>
   <v type="int" >       48        7       12       13       18 </v>
   <v type="int" >       48        7        8       13       18 </v>
   <v type="int" >       48        7        8        8       18 </v>
   <v type="int" >       48        7       12       17       18 </v>
   <v type="int" >       48        7        9       17       18 </v>
   <v type="int" >       48        7        8        9       18 </v>
   <v type="int" >       48        8       13       14       18 </v>
   <v type="int" >       48        8        9       14       18 </v>
   <v type="int" >       48        8       13       18       18 </v>
   <v type="int" >       24        8        8       18       18 </v>
   <v type="int" >       24        9        9       14       17 </v>
   <v type="int" >       24        9        9       10       17 </v>
   <v type="int" >       48        9       14       17       18 </v>
   <v type="int" >       24       11       12       12       15 </v>
   <v type="int" >       24       11       12       12       17 </v>
   <v type="int" >       48       12       15       16       19 </v>
   <v type="int" >       48       12       13       16       19 </v>
   <v type="int" >       48       12       13       18       19 </v>
   <v type="int" >       24       12       12       15       19 </v>
   <v type="int" >       24       12       12       17       19 </v>
   <v type="int" >       48       12       17       18       19 </v>
   <v type="int" >       24       13       13       16       20 </v>
   <v type="int" >       24       13       13       14       20 </v>
   <v type="int" >       48       13       14       18       20 </v>
   <v type="int" >       48       13       16       19       20 </v>
   <v type="int" >       48       13       18       19       20 </v>
   <v type="int" >       48       13       18       18       20 </v>
   <v type="int" >       24       14       18       18       20 </v>
   <v type="int" >       24       14       17       18       18 </v>
   <v type="int" >       12       15       15       16       16 </v>
   <v type="int" >       24       15       16       16       19 </v>
   <v type="int" >       12       16       16       19       19 </v>
   <v type="int" >       24       16       19       19       20 </v>
   <v type="int" >       24       17       18       18       19 </v>
   <v type="int" >       48       18       19       20       20 </v>
   <v type="int" >       24       18       18       20       20 </v>
   <v type="int" >       24       18       18       19       20 </v>
   <v type="int" >       12       19       19       20       20 </v>
   <v type="int" >       24       19       20       20       20 </v>
   <v type="int" >        6       20       20       20       20 </v>
  </varray>
  <i name="volumeweight">      0.00048591 </i>
 </kpoints>
 <parameters>
  <separator name="general" >
   <i type="string" name="SYSTEM">unknown system</i>
   <i type="logical" name="LCOMPAT"> F  </i>
  </separator>
  <separator name="electronic" >
   <i type="string" name="PREC">accura</i>
   <i name="ENMAX">    280.00000000</i>
   <i name="ENAUG">    368.05600000</i>
   <i name="EDIFF">      0.00010000</i>
   <i type="int" name="IALGO">    68</i>
   <i type="int" name="IWAVPR">    10</i>
   <i type="int" name="NBANDS">    16</i>
   <i type="int" name="NBANDSLOW">    -1</i>
   <i type="int" name="NBANDSHIGH">    -1</i>
   <i name="NELECT">     14.00000000</i>
   <i type="int" name="TURBO">     0</i>
   <i type="int" name="IRESTART">     0</i>
   <i type="int" name="NREBOOT">     0</i>
   <i type="int" name="NMIN">     0</i>
   <i name="EREF">      0.00000000</i>
   <separator name="electronic smearing" >
    <i type="int" name="ISMEAR">    -5</i>
    <i name="SIGMA">      0.05000000</i>
    <i name="KSPACING">      0.50000000</i>
    <i type="logical" name="KGAMMA"> T  </i>
    <i type="logical" name="KBLOWUP"> T  </i>
   </separator>
   <separator name="electronic projectors" >
    <i type="logical" name="LREAL"> T  </i>
    <v name="ROPT">     -0.00025000     -0.00025000</v>
    <i type="int" name="LMAXPAW">  -100</i>
    <i type="int" name="LMAXMIX">     2</i>
    <i type="logical" name="NLSPLINE"> F  </i>
   </separator>
   <separator name="electronic startup" >
    <i type="int" name="ISTART">     0</i>
    <i type="int" name="ICHARG">     2</i>
    <i type="int" name="INIWAV">     1</i>
   </separator>
   <separator name="electronic spin" >
    <i type="int" name="ISPIN">     2</i>
    <i type="logical" name="LNONCOLLINEAR"> F  </i>
    <v name="MAGMOM">      1.00000000      1.00000000</v>
    <i name="NUPDOWN">     -1.00000000</i>
    <i type="logical" name="LSORBIT"> F  </i>
    <v name="SAXIS">      0.00000000      0.00000000      1.00000000</v>
    <i type="logical" name="LSPIRAL"> F  </i>
    <v name="QSPIRAL">      0.00000000      0.00000000      0.00000000</v>
    <i type="logical" name="LZEROZ"> F  </i>
   </separator>
   <separator name="electronic exchange-correlation" >
    <i type="logical" name="LASPH"> F  </i>
    <i type="logical" name="LMETAGGA"> F  </i>
   </separator>
   <separator name="electronic convergence" >
    <i type="int" name="NELM">   100</i>
    <i type="int" name="NELMDL">    -5</i>
    <i type="int" name="NELMIN">     2</i>
    <i name="ENINI">    280.00000000</i>
    <separator name="electronic convergence detail" >
     <i type="logical" name="LDIAG"> T  </i>
     <i type="logical" name="LSUBROT"> F  </i>
     <i name="WEIMIN">      0.00000000</i>
     <i name="EBREAK">      0.00000156</i>
     <i name="DEPER">      0.30000000</i>
     <i type="int" name="NRMM">     4</i>
     <i name="TIME">      0.40000000</i>
    </separator>
   </separator>
   <separator name="electronic mixer" >
    <i name="AMIX">      0.40000000</i>
    <i name="BMIX">      1.00000000</i>
    <i name="AMIN">      0.10000000</i>
    <i name="AMIX_MAG">      1.60000000</i>
    <i name="BMIX_MAG">      1.00000000</i>
    <separator name="electronic mixer details" >
     <i type="int" name="IMIX">     4</i>
     <i type="logical" name="MIXFIRST"> F  </i>
     <i type="int" name="MAXMIX">   -45</i>
     <i name="WC">    100.00000000</i>
     <i type="int" name="INIMIX">     1</i>
     <i type="int" name="MIXPRE">     1</i>
     <i type="int" name="MREMOVE">     5</i>
    </separator>
   </separator>
   <separator name="electronic dipolcorrection" >
    <i type="logical" name="LDIPOL"> F  </i>
    <i type="logical" name="LMONO"> F  </i>
    <i type="int" name="IDIPOL">     0</i>
    <i name="EPSILON">      1.00000000</i>
    <v name="DIPOL">   -100.00000000   -100.00000000   -100.00000000</v>
    <i name="EFIELD">      0.00000000</i>
   </separator>
  </separator>
  <separator name="grids" >
   <i type="int" name="NGX">    24</i>
   <i type="int" name="NGY">    24</i>
   <i type="int" name="NGZ">    24</i>
   <i type="int" name="NGXF">    48</i>
   <i type="int" name="NGYF">    48</i>
   <i type="int" name="NGZF">    48</i>
   <i type="logical" name="ADDGRID"> F  </i>
  </separator>
  <separator name="ionic" >
   <i type="int" name="NSW">     0</i>
   <i type="int" name="IBRION">    -1</i>
   <i type="int" name="MDALGO">     0</i>
   <i type="int" name="ISIF">     2</i>
   <i name="PSTRESS">      0.00000000</i>
   <i name="EDIFFG">      0.00100000</i>
   <i type="int" name="NFREE">     1</i>
   <i name="POTIM">      0.50000000</i>
   <i name="SMASS">     -3.00000000</i>
   <i name="SCALEE">      1.00000000</i>
  </separator>
  <separator name="ionic md" >
   <i name="TEBEG">      0.00010000</i>
   <i name="TEEND">      0.00010000</i>
   <i type="int" name="NBLOCK">     1</i>
   <i type="int" name="KBLOCK">     1</i>
   <i type="int" name="NPACO">   256</i>
   <i name="APACO">     16.00000000</i>
  </separator>
  <separator name="symmetry" >
   <i type="int" name="ISYM">     2</i>
   <i name="SYMPREC">      0.00001000</i>
  </separator>
  <separator name="dos" >
   <i type="int" name="LORBIT">    11</i>
   <v name="RWIGS">     -1.00000000     -1.00000000</v>
   <i type="int" name="NEDOS">   301</i>
   <i name="EMIN">     10.00000000</i>
   <i name="EMAX">    -10.00000000</i>
   <i name="EFERMI">      0.00000000</i>
  </separator>
  <separator name="writing" >
   <i type="int" name="NWRITE">     2</i>
   <i type="logical" name="LWAVE"> F  </i>
   <i type="logical" name="LDOWNSAMPLE"> F  </i>
   <i type="logical" name="LCHARG"> T  </i>
   <i type="logical" name="LPARD"> F  </i>
   <i type="logical" name="LVTOT"> F  </i>
   <i type="logical" name="LVHAR"> F  </i>
   <i type="logical" name="LELF"> F  </i>
   <i type="logical" name="LOPTICS"> F  </i>
   <v name="STM">      0.00000000      0.00000000      0.00000000      0.00000000      0.00000000      0.00000000      0.00000000</v>
  </separator>
  <separator name="performance" >
   <i type="int" name="NPAR">    16</i>
   <i type="int" name="NSIM">     4</i>
   <i type="int" name="NBLK">    -1</i>
   <i type="logical" name="LPLANE"> T  </i>
   <i type="logical" name="LSCALAPACK"> T  </i>
   <i type="logical" name="LSCAAWARE"> F  </i>
   <i type="logical" name="LSCALU"> F  </i>
   <i type="logical" name="LASYNC"> F  </i>
   <i type="logical" name="LORBITALREAL"> F  </i>
  </separator>
  <separator name="miscellaneous" >
   <i type="int" name="IDIOT">     3</i>
   <i type="int" name="PHON_NSTRUCT">    -1</i>
   <i type="logical" name="LMUSIC"> F  </i>
   <v name="POMASS">     22.99000000     35.45300000</v>
   <v name="DARWINR">      0.00000000      0.00000000</v>
   <v name="DARWINV">      1.00000000      1.00000000</v>
   <i type="logical" name="LCORR"> T  </i>
  </separator>
  <i type="logical" name="GGA_COMPAT"> T  </i>
  <i type="logical" name="LBERRY"> F  </i>
  <i type="int" name="ICORELEVEL">     0</i>
  <i type="logical" name="LDAU"> F  </i>
  <i type="int" name="I_CONSTRAINED_M">     0</i>
  <separator name="electronic exchange-correlation" >
   <i type="string" name="GGA">--</i>
   <i type="int" name="VOSKOWN">     0</i>
   <i type="logical" name="LHFCALC"> F  </i>
   <i type="string" name="PRECFOCK"></i>
   <i type="logical" name="LSYMGRAD"> F  </i>
   <i type="logical" name="LHFONE"> F  </i>
   <i type="logical" name="LRHFCALC"> F  </i>
   <i type="logical" name="LTHOMAS"> F  </i>
   <i type="logical" name="LMODELHF"> F  </i>
   <i type="logical" name="LFOCKACE"> F  </i>
   <i name="ENCUT4O">     -1.00000000</i>
   <i type="int" name="EXXOEP">     0</i>
   <i type="int" name="FOURORBIT">     0</i>
   <i name="AEXX">      0.00000000</i>
   <i name="HFALPHA">      0.00000000</i>
   <i name="MCALPHA">      0.00000000</i>
   <i name="ALDAX">      1.00000000</i>
   <i name="AGGAX">      1.00000000</i>
   <i name="ALDAC">      1.00000000</i>
   <i name="AGGAC">      1.00000000</i>
   <i type="int" name="NKREDX">     1</i>
   <i type="int" name="NKREDY">     1</i>
   <i type="int" name="NKREDZ">     1</i>
   <i type="logical" name="SHIFTRED"> F  </i>
   <i type="logical" name="ODDONLY"> F  </i>
   <i type="logical" name="EVENONLY"> F  </i>
   <i type="int" name="LMAXFOCK">     0</i>
   <i type="int" name="NMAXFOCKAE">     0</i>
   <i type="logical" name="LFOCKAEDFT"> F  </i>
   <i name="HFSCREEN">      0.00000000</i>
   <i name="HFSCREENC">      0.00000000</i>
   <i type="int" name="NBANDSGWLOW">     0</i>
  </separator>
  <separator name="vdW DFT" >
   <i type="logical" name="LUSE_VDW"> F  </i>
   <i name="Zab_VDW">     -0.84910000</i>
   <i name="PARAM1">      0.12340000</i>
   <i name="PARAM2">      1.00000000</i>
   <i name="PARAM3">      0.00000000</i>
  </separator>
  <separator name="model GW" >
   <i type="int" name="MODEL_GW">     0</i>
   <i name="MODEL_EPS0">     13.52549587</i>
   <i name="MODEL_ALPHA">      1.00000000</i>
  </separator>
  <separator name="linear response parameters" >
   <i type="logical" name="LEPSILON"> F  </i>
   <i type="logical" name="LRPA"> F  </i>
   <i type="logical" name="LNABLA"> F  </i>
   <i type="logical" name="LVEL"> F  </i>
   <i type="int" name="KINTER">     0</i>
   <i name="CSHIFT">      0.10000000</i>
   <i name="OMEGAMAX">     -1.00000000</i>
   <i name="DEG_THRESHOLD">      0.00200000</i>
   <i name="RTIME">     -0.10000000</i>
   <i name="WPLASMAI">      0.00000000</i>
   <v name="DFIELD">      0.00000000      0.00000000      0.00000000</v>
   <v name="WPLASMA">      0.00000000      0.00000000      0.00000000      0.00000000      0.00000000      0.00000000      0.00000000      0.00000000      0.00000000</v>
  </separator>
  <separator name="orbital magnetization" >
   <i type="logical" name="NUCIND"> F  </i>
   <v name="MAGPOS">      0.00000000      0.00000000      0.00000000</v>
   <i type="logical" name="LNICSALL"> T  </i>
   <i type="logical" name="ORBITALMAG"> F  </i>
   <i type="logical" name="LMAGBLOCH"> F  </i>
   <i type="logical" name="LCHIMAG"> F  </i>
   <i type="logical" name="LGAUGE"> T  </i>
   <i type="int" name="MAGATOM">     0</i>
   <v name="MAGDIPOL">      0.00000000      0.00000000      0.00000000</v>
   <v name="AVECCONST">      0.00000000      0.00000000      0.00000000</v>
  </separator>
  <separator name="response functions" >
   <i type="logical" name="LFINITE_TEMPERATURE"> F  </i>
   <i type="logical" name="LADDER"> F  </i>
   <i type="logical" name="LRPAFORCE"> F  </i>
   <i type="logical" name="LFXC"> F  </i>
   <i type="logical" name="LHARTREE"> T  </i>
   <i type="int" name="IBSE">     0</i>
   <v type="int" name="KPOINT">    -1     0     0     0</v>
   <i type="logical" name="LTCTC"> F  </i>
   <i type="logical" name="LTCTE"> F  </i>
   <i type="logical" name="LTETE"> F  </i>
   <i type="logical" name="LTRIPLET"> F  </i>
   <i type="logical" name="LFXCEPS"> F  </i>
   <i type="logical" name="LFXHEG"> F  </i>
   <i type="int" name="NATURALO">     2</i>
   <i type="logical" name="LHOLEGF"> F  </i>
   <i type="logical" name="L2ORDER"> F  </i>
   <i type="logical" name="LDMP1"> F  </i>
   <i type="logical" name="LMP2LT"> F  </i>
   <i type="logical" name="LSMP2LT"> F  </i>
   <i type="logical" name="LGWLF"> F  </i>
   <i name="ENCUTGW">     -2.00000000</i>
   <i name="ENCUTGWSOFT">     -2.00000000</i>
   <i name="ENCUTLF">     -1.00000000</i>
   <i type="logical" name="LESF_SPLINES"> F  </i>
   <i type="int" name="LMAXMP2">    -1</i>
   <i name="SCISSOR">      0.00000000</i>
   <i type="int" name="NOMEGA">     0</i>
   <i type="int" name="NOMEGAR">     0</i>
   <i type="int" name="NBANDSGW">    -1</i>
   <i type="int" name="NBANDSO">    -1</i>
   <i type="int" name="NBANDSV">    -1</i>
   <i type="int" name="NELM">   100</i>
   <i type="int" name="NELMHF">     1</i>
   <i type="int" name="DIM">     3</i>
   <i type="int" name="IESPILON">     4</i>
   <i type="int" name="ANTIRES">     0</i>
   <i name="OMEGAMAX">    -30.00000000</i>
   <i name="OMEGAMIN">    -30.00000000</i>
   <i name="OMEGATL">   -200.00000000</i>
   <i type="int" name="OMEGAGRID">     0</i>
   <i name="CSHIFT">     -0.10000000</i>
   <i type="logical" name="LSELFENERGY"> F  </i>
   <i type="logical" name="LSPECTRAL"> F  </i>
   <i type="logical" name="LSPECTRALGW"> F  </i>
   <i type="logical" name="LSINGLES"> F  </i>
   <i type="logical" name="LFERMIGW"> F  </i>
   <i type="logical" name="ODDONLYGW"> F  </i>
   <i type="logical" name="EVENONLYGW"> F  </i>
   <i type="int" name="NKREDLFX">     1</i>
   <i type="int" name="NKREDLFY">     1</i>
   <i type="int" name="NKREDLFZ">     1</i>
   <i type="int" name="MAXMEM">  2800</i>
   <i type="int" name="TELESCOPE">     0</i>
   <i type="int" name="NTAUPAR">    -1</i>
   <i type="int" name="NOMEGAPAR">    -1</i>
   <i name="DAMP_NEWTON">      0.80000001</i>
   <i name="LAMBDA">      1.00000000</i>
  </separator>
  <separator name="External order field" >
   <i name="OFIELD_KAPPA">      0.00000000</i>
   <v name="OFIELD_K">      0.00000000      0.00000000      0.00000000</v>
   <i name="OFIELD_Q6_NEAR">      0.00000000</i>
   <i name="OFIELD_Q6_FAR">      0.00000000</i>
   <i name="OFIELD_A">      0.00000000</i>
  </separator>
 </parameters>
 <atominfo>
  <atoms>       2 </atoms>
  <types>       2 </types>
  <array name="atoms" >
   <dimension dim="1">ion</dimension>
   <field type="string">element</field>
   <field type="int">atomtype</field>
   <set>
    <rc><c>Na</c><c>   1</c></rc>
    <rc><c>Cl</c><c>   2</c></rc>
   </set>
  </array>
  <array name="atomtypes" >
   <dimension dim="1">type</dimension>
   <field type="int">atomspertype</field>
   <field type="string">element</field>
   <field>mass</field>
   <field>valence</field>
   <field type="string">pseudopotential</field>
   <set>
    <rc><c>   1</c><c>Na</c><c>     22.99000000</c><c>      7.00000000</c><c>  PAW_PBE Na_pv 19Sep2006               </c></rc>
    <rc><c>   1</c><c>Cl</c><c>     35.45300000</c><c>      7.00000000</c><c>  PAW_PBE Cl 17Jan2003                  </c></rc>
   </set>
  </array>
 </atominfo>
 <structure name="initialpos" >
  <crystal>
   <varray name="basis" >
    <v>       3.45976223      -0.00000000       1.99749523 </v>
    <v>       1.15325408       3.26189553       1.99749523 </v>
    <v>      -0.00000000      -0.00000000       3.99498948 </v>
   </varray>
   <i name="volume">     45.08498624 </i>
   <varray name="rec_basis" >
    <v>       0.28903720      -0.10219007       0.00000000 </v>
    <v>       0.00000000       0.30657021       0.00000000 </v>
    <v>      -0.14451864      -0.10219010       0.25031355 </v>
   </varray>
  </crystal>
  <varray name="positions" >
   <v>       0.00000000       0.00000000       0.00000000 </v>
   <v>       0.50000000       0.50000000       0.50000000 </v>
  </varray>
 </structure>
 <calculation>
  <scstep>
   <time name="dav">    0.35    0.35</time>
   <time name="total">    0.37    0.38</time>
   <energy>
    <i name="alphaZ">     22.89454872 </i>
    <i name="ewald">   -708.69012362 </i>
    <i name="hartreedc">   -284.28484474 </i>
    <i name="XCdc">     45.03591933 </i>
    <i name="pawpsdc">    673.82954428 </i>
    <i name="pawaedc">   -762.45844458 </i>
    <i name="eentropy">      0.00000000 </i>
    <i name="bandstr">   -133.76197566 </i>
    <i name="atom">   1175.72297216 </i>
    <i name="e_fr_energy">     28.28759588 </i>
    <i name="e_wo_entrp">     28.28759588 </i>
    <i name="e_0_energy">     28.28759588 </i>
   </energy>
  </scstep>
  <scstep>
   <time name="dav">    0.52    0.52</time>
   <time name="total">    0.52    0.52</time>
   <energy>
    <i name="e_fr_energy">     -5.71729237 </i>
    <i name="e_wo_entrp">     -5.71729237 </i>
    <i name="e_0_energy">     -5.71729237 </i>
   </energy>
  </scstep>
  <scstep>
   <time name="dav">    0.40    0.40</time>
   <time name="total">    0.40    0.40</time>
   <energy>
    <i name="e_fr_energy">     -6.36555349 </i>
    <i name="e_wo_entrp">     -6.36555349 </i>
    <i name="e_0_energy">     -6.36555349 </i>
   </energy>
  </scstep>
  <scstep>
   <time name="dav">    0.61    0.61</time>
   <time name="total">    0.62    0.62</time>
   <energy>
    <i name="e_fr_energy">     -6.36808521 </i>
    <i name="e_wo_entrp">     -6.36808521 </i>
    <i name="e_0_energy">     -6.36808521 </i>
   </energy>
  </scstep>
  <scstep>
   <time name="dav">    0.42    0.42</time>
   <time name="total">    0.44    0.44</time>
   <energy>
    <i name="e_fr_energy">     -6.36808677 </i>
    <i name="e_wo_entrp">     -6.36808677 </i>
    <i name="e_0_energy">     -6.36808677 </i>
   </energy>
  </scstep>
  <scstep>
   <time name="diag">    0.10    0.10</time>
   <time name="diis">    0.14    0.14</time>
   <time name="orth">    0.02    0.02</time>
   <time name="total">    0.30    0.30</time>
   <energy>
    <i name="e_fr_energy">     -6.69306625 </i>
    <i name="e_wo_entrp">     -6.69306625 </i>
    <i name="e_0_energy">     -6.69306625 </i>
   </energy>
  </scstep>
  <scstep>
   <time name="diag">    0.10    0.10</time>
   <time name="diis">    0.14    0.14</time>
   <time name="orth">    0.02    0.02</time>
   <time name="total">    0.30    0.30</time>
   <energy>
    <i name="e_fr_energy">     -6.76113839 </i>
    <i name="e_wo_entrp">     -6.76113839 </i>
    <i name="e_0_energy">     -6.76113839 </i>
   </energy>
  </scstep>
  <scstep>
   <time name="diag">    0.10    0.10</time>
   <time name="diis">    0.16    0.16</time>
   <time name="orth">    0.02    0.02</time>
   <time name="total">    0.32    0.32</time>
   <energy>
    <i name="e_fr_energy">     -6.76737594 </i>
    <i name="e_wo_entrp">     -6.76737594 </i>
    <i name="e_0_energy">     -6.76737594 </i>
   </energy>
  </scstep>
  <scstep>
   <time name="diag">    0.09    0.09</time>
   <time name="diis">    0.16    0.16</time>
   <time name="orth">    0.02    0.02</time>
   <time name="total">    0.31    0.31</time>
   <energy>
    <i name="e_fr_energy">     -6.76995184 </i>
    <i name="e_wo_entrp">     -6.76995184 </i>
    <i name="e_0_energy">     -6.76995184 </i>
   </energy>
  </scstep>
  <scstep>
   <time name="diag">    0.09    0.09</time>
   <time name="diis">    0.16    0.16</time>
   <time name="orth">    0.02    0.02</time>
   <time name="total">    0.30    0.30</time>
   <energy>
    <i name="e_fr_energy">     -6.77179336 </i>
    <i name="e_wo_entrp">     -6.77179336 </i>
    <i name="e_0_energy">     -6.77179336 </i>
   </energy>
  </scstep>
  <scstep>
   <time name="diag">    0.09    0.09</time>
   <time name="diis">    0.18    0.18</time>
   <time name="orth">    0.02    0.02</time>
   <time name="total">    0.33    0.33</time>
   <energy>
    <i name="e_fr_energy">     -6.77196527 </i>
    <i name="e_wo_entrp">     -6.77196527 </i>
    <i name="e_0_energy">     -6.77196527 </i>
   </energy>
  </scstep>
  <scstep>
   <time name="diag">    0.09    0.09</time>
   <time name="diis">    0.17    0.17</time>
   <time name="orth">    0.02    0.02</time>
   <time name="total">    0.30    0.30</time>
   <energy>
    <i name="alphaZ">     22.89454872 </i>
    <i name="ewald">   -708.69012362 </i>
    <i name="hartreedc">   -288.07187055 </i>
    <i name="XCdc">     45.44173522 </i>
    <i name="pawpsdc">    686.96297837 </i>
    <i name="pawaedc">   -775.89796993 </i>
    <i name="eentropy">      0.00000000 </i>
    <i name="bandstr">   -165.13426368 </i>
    <i name="atom">   1175.72297216 </i>
    <i name="e_fr_energy">     -6.77199332 </i>
    <i name="e_wo_entrp">     -6.77199332 </i>
    <i name="e_0_energy">     -6.77199332 </i>
   </energy>
  </scstep>
  <structure>
   <crystal>
    <varray name="basis" >
     <v>       3.45976223      -0.00000000       1.99749523 </v>
     <v>       1.15325408       3.26189553       1.99749523 </v>
     <v>      -0.00000000      -0.00000000       3.99498948 </v>
    </varray>
    <i name="volume">     45.08498624 </i>
    <varray name="rec_basis" >
     <v>       0.28903720      -0.10219007       0.00000000 </v>
     <v>       0.00000000       0.30657021       0.00000000 </v>
     <v>      -0.14451864      -0.10219010       0.25031355 </v>
    </varray>
   </crystal>
   <varray name="positions" >
    <v>       0.00000000       0.00000000       0.00000000 </v>
    <v>       0.50000000       0.50000000       0.50000000 </v>
   </varray>
  </structure>
  <varray name="forces" >
   <v>       0.00000000       0.00000000       0.00000000 </v>
   <v>      -0.00000000      -0.00000000      -0.00000000 </v>
  </varray>
  <varray name="stress" >
   <v>      -2.98093774       0.00000000      -0.00000042 </v>
   <v>      -0.00000000      -2.98093850      -0.00000030 </v>
   <v>      -0.00000042      -0.00000030      -2.98093799 </v>
  </varray>
  <energy>
   <i name="e_fr_energy">     -6.77199332 </i>
   <i name="e_wo_entrp">     -6.77199332 </i>
   <i name="e_0_energy">     -6.77199332 </i>
  </energy>
  <time name="totalsc">    5.24    5.28</time>
  <eigenvalues>
   <array>
    <dimension dim="1">band</dimension>
    <dimension dim="2">kpoint</dimension>
    <dimension dim="3">spin</dimension>
    <field>eigene</field>
    <field>occ</field>
    <set>
     <set comment="spin 1">
      <set comment="kpoint 1">
       <r>  -21.5850    1.0000 </r>
       <r>  -21.5850    1.0000 </r>
       <r>  -21.5850    1.0000 </r>
       <r>  -13.4138    1.0000 </r>
       <r>   -0.7616    1.0000 </r>
       <r>   -0.7616    1.0000 </r>
       <r>   -0.7616    1.0000 </r>
       <r>    4.3154    0.0000 </r>
       <r>   10.3581    0.0000 </r>
       <r>   10.3581    0.0000 </r>
       <r>   10.3581    0.0000 </r>
       <r>   12.5275    0.0000 </r>
       <r>   12.5275    0.0000 </r>
       <r>   14.0903    0.0000 </r>
       <r>   16.2931    0.0000 </r>
       <r>   16.2931    0.0000 </r>
      </set>
      <set comment="kpoint 2">
       <r>  -21.5895    1.0000 </r>
       <r>  -21.5846    1.0000 </r>
       <r>  -21.5846    1.0000 </r>
       <r>  -13.3542    1.0000 </r>
       <r>   -1.2203    1.0000 </r>
       <r>   -0.8110    1.0000 </r>
       <r>   -0.8110    1.0000 </r>
       <r>    4.9409    0.0000 </r>
       <r>    9.7086    0.0000 </r>
       <r>   10.5982    0.0000 </r>
       <r>   10.5982    0.0000 </r>
       <r>   12.2331    0.0000 </r>
       <r>   12.2331    0.0000 </r>
       <r>   15.1117    0.0000 </r>
       <r>   16.2635    0.0000 </r>
       <r>   17.3225    0.0000 </r>
      </set>
      <set comment="kpoint 3">
       <r>  -21.6017    1.0000 </r>
       <r>  -21.5857    1.0000 </r>
       <r>  -21.5856    1.0000 </r>
       <r>  -13.2157    1.0000 </r>
       <r>   -2.0454    1.0000 </r>
       <r>   -0.9225    1.0000 </r>
       <r>   -0.9225    1.0000 </r>
       <r>    6.0263    0.0000 </r>
       <r>    9.2153    0.0000 </r>
       <r>   10.5661    0.0000 </r>
       <r>   10.5661    0.0000 </r>
       <r>   12.7805    0.0000 </r>
       <r>   12.7806    0.0000 </r>
       <r>   14.6293    0.0000 </r>
       <r>   18.9795    0.0000 </r>
       <r>   19.5434    0.0000 </r>
      </set>
      <set comment="kpoint 4">
       <r>  -21.6114    1.0000 </r>
       <r>  -21.5863    1.0000 </r>
       <r>  -21.5863    1.0000 </r>
       <r>  -13.0996    1.0000 </r>
       <r>   -2.5943    1.0000 </r>
       <r>   -1.0077    1.0000 </r>
       <r>   -1.0077    1.0000 </r>
       <r>    6.4698    0.0000 </r>
       <r>    9.6714    0.0000 </r>
       <r>   10.2597    0.0000 </r>
       <r>   10.2597    0.0000 </r>
       <r>   14.2074    0.0000 </r>
       <r>   14.6170    0.0000 </r>
       <r>   14.6170    0.0000 </r>
       <r>   17.1619    0.0000 </r>
       <r>   17.4186    0.0000 </r>
      </set>
      <set comment="kpoint 5">
       <r>  -21.5891    1.0000 </r>
       <r>  -21.5857    1.0000 </r>
       <r>  -21.5857    1.0000 </r>
       <r>  -13.3363    1.0000 </r>
       <r>   -1.2424    1.0000 </r>
       <r>   -0.8825    1.0000 </r>
       <r>   -0.8825    1.0000 </r>
       <r>    5.1449    0.0000 </r>
       <r>    9.3600    0.0000 </r>
       <r>   10.8343    0.0000 </r>
       <r>   10.8344    0.0000 </r>
       <r>   11.3226    0.0000 </r>
       <r>   12.8184    0.0000 </r>
       <r>   15.8237    0.0000 </r>
       <r>   16.8354    0.0000 </r>
       <r>   16.8354    0.0000 </r>
      </set>
      <set comment="kpoint 6">
       <r>  -21.5977    1.0000 </r>
       <r>  -21.5871    1.0000 </r>
       <r>  -21.5865    1.0000 </r>
       <r>  -13.2286    1.0000 </r>
       <r>   -1.8348    1.0000 </r>
       <r>   -1.0074    1.0000 </r>
       <r>   -1.0034    1.0000 </r>
       <r>    6.1234    0.0000 </r>
       <r>    8.7996    0.0000 </r>
       <r>   10.2357    0.0000 </r>
       <r>   11.0877    0.0000 </r>
       <r>   11.8382    0.0000 </r>
       <r>   13.3147    0.0000 </r>
       <r>   16.0839    0.0000 </r>
       <r>   18.1829    0.0000 </r>
       <r>   18.3720    0.0000 </r>
      </set>
      <set comment="kpoint 7">
       <r>  -21.6070    1.0000 </r>
       <r>  -21.5878    1.0000 </r>
       <r>  -21.5874    1.0000 </r>
       <r>  -13.1080    1.0000 </r>
       <r>   -2.3838    1.0000 </r>
       <r>   -1.1803    1.0000 </r>
       <r>   -1.0813    1.0000 </r>
       <r>    6.8638    0.0000 </r>
       <r>    9.0556    0.0000 </r>
       <r>    9.6661    0.0000 </r>
       <r>   10.7833    0.0000 </r>
       <r>   13.2457    0.0000 </r>
       <r>   14.9208    0.0000 </r>
       <r>   15.6552    0.0000 </r>
       <r>   16.9260    0.0000 </r>
       <r>   17.3881    0.0000 </r>
      </set>
      <set comment="kpoint 8">
       <r>  -21.6100    1.0000 </r>
       <r>  -21.5894    1.0000 </r>
       <r>  -21.5871    1.0000 </r>
       <r>  -13.0685    1.0000 </r>
       <r>   -2.5373    1.0000 </r>
       <r>   -1.2889    1.0000 </r>
       <r>   -1.0648    1.0000 </r>
       <r>    7.0081    0.0000 </r>
       <r>    9.2768    0.0000 </r>
       <r>    9.7783    0.0000 </r>
       <r>   10.5769    0.0000 </r>
       <r>   14.4841    0.0000 </r>
       <r>   14.5055    0.0000 </r>
       <r>   15.4423    0.0000 </r>
       <r>   16.2856    0.0000 </r>
       <r>   17.6449    0.0000 </r>
      </set>
      <set comment="kpoint 9">
       <r>  -21.6046    1.0000 </r>
       <r>  -21.5893    1.0000 </r>
       <r>  -21.5858    1.0000 </r>
       <r>  -13.1427    1.0000 </r>
       <r>   -2.2273    1.0000 </r>
       <r>   -1.2424    1.0000 </r>
       <r>   -0.9633    1.0000 </r>
       <r>    6.7566    0.0000 </r>
       <r>    9.0577    0.0000 </r>
       <r>    9.8142    0.0000 </r>
       <r>   10.7537    0.0000 </r>
       <r>   12.4521    0.0000 </r>
       <r>   14.5609    0.0000 </r>
       <r>   15.7388    0.0000 </r>
       <r>   16.7613    0.0000 </r>
       <r>   18.8133    0.0000 </r>
      </set>
      <set comment="kpoint 10">
       <r>  -21.5954    1.0000 </r>
       <r>  -21.5873    1.0000 </r>
       <r>  -21.5848    1.0000 </r>
       <r>  -13.2701    1.0000 </r>
       <r>   -1.6556    1.0000 </r>
       <r>   -1.0315    1.0000 </r>
       <r>   -0.8489    1.0000 </r>
       <r>    5.7546    0.0000 </r>
       <r>    9.1582    0.0000 </r>
       <r>   10.4740    0.0000 </r>
       <r>   11.0631    0.0000 </r>
       <r>   11.4054    0.0000 </r>
       <r>   13.0049    0.0000 </r>
       <r>   16.2138    0.0000 </r>
       <r>   16.5505    0.0000 </r>
       <r>   18.1396    0.0000 </r>
      </set>
      <set comment="kpoint 11">
       <r>  -21.5987    1.0000 </r>
       <r>  -21.5893    1.0000 </r>
       <r>  -21.5893    1.0000 </r>
       <r>  -13.1721    1.0000 </r>
       <r>   -1.9757    1.0000 </r>
       <r>   -1.1377    1.0000 </r>
       <r>   -1.1377    1.0000 </r>
       <r>    6.5918    0.0000 </r>
       <r>    8.0966    0.0000 </r>
       <r>    9.8343    0.0000 </r>
       <r>   12.0451    0.0000 </r>
       <r>   12.0451    0.0000 </r>
       <r>   13.5755    0.0000 </r>
       <r>   18.1631    0.0000 </r>
       <r>   18.1631    0.0000 </r>
       <r>   19.2198    0.0000 </r>
      </set>
      <set comment="kpoint 12">
       <r>  -21.6024    1.0000 </r>
       <r>  -21.5915    1.0000 </r>
       <r>  -21.5900    1.0000 </r>
       <r>  -13.0869    1.0000 </r>
       <r>   -2.2354    1.0000 </r>
       <r>   -1.3692    1.0000 </r>
       <r>   -1.2232    1.0000 </r>
       <r>    7.1430    0.0000 </r>
       <r>    7.9815    0.0000 </r>
       <r>    9.5446    0.0000 </r>
       <r>   12.0517    0.0000 </r>
       <r>   13.0002    0.0000 </r>
       <r>   14.8642    0.0000 </r>
       <r>   16.7768    0.0000 </r>
       <r>   17.3527    0.0000 </r>
       <r>   18.5131    0.0000 </r>
      </set>
      <set comment="kpoint 13">
       <r>  -21.6042    1.0000 </r>
       <r>  -21.5958    1.0000 </r>
       <r>  -21.5894    1.0000 </r>
       <r>  -13.0376    1.0000 </r>
       <r>   -2.2516    1.0000 </r>
       <r>   -1.7346    1.0000 </r>
       <r>   -1.2036    1.0000 </r>
       <r>    7.5784    0.0000 </r>
       <r>    8.4775    0.0000 </r>
       <r>    9.4975    0.0000 </r>
       <r>   11.5738    0.0000 </r>
       <r>   12.9995    0.0000 </r>
       <r>   14.8158    0.0000 </r>
       <r>   16.6052    0.0000 </r>
       <r>   17.4162    0.0000 </r>
       <r>   18.4694    0.0000 </r>
      </set>
      <set comment="kpoint 14">
       <r>  -21.6040    1.0000 </r>
       <r>  -21.5955    1.0000 </r>
       <r>  -21.5871    1.0000 </r>
       <r>  -13.0630    1.0000 </r>
       <r>   -2.2051    1.0000 </r>
       <r>   -1.7323    1.0000 </r>
       <r>   -1.0900    1.0000 </r>
       <r>    7.8015    0.0000 </r>
       <r>    8.8091    0.0000 </r>
       <r>    9.0746    0.0000 </r>
       <r>   11.2002    0.0000 </r>
       <r>   13.0751    0.0000 </r>
       <r>   13.9359    0.0000 </r>
       <r>   16.6749    0.0000 </r>
       <r>   17.8683    0.0000 </r>
       <r>   18.5468    0.0000 </r>
      </set>
      <set comment="kpoint 15">
       <r>  -21.6034    1.0000 </r>
       <r>  -21.5917    1.0000 </r>
       <r>  -21.5917    1.0000 </r>
       <r>  -13.0517    1.0000 </r>
       <r>   -2.3601    1.0000 </r>
       <r>   -1.3235    1.0000 </r>
       <r>   -1.3235    1.0000 </r>
       <r>    6.8253    0.0000 </r>
       <r>    7.4103    0.0000 </r>
       <r>   10.2536    0.0000 </r>
       <r>   13.5667    0.0000 </r>
       <r>   13.5668    0.0000 </r>
       <r>   14.4080    0.0000 </r>
       <r>   16.7887    0.0000 </r>
       <r>   16.8165    0.0000 </r>
       <r>   16.8165    0.0000 </r>
      </set>
      <set comment="kpoint 16">
       <r>  -21.6031    1.0000 </r>
       <r>  -21.5951    1.0000 </r>
       <r>  -21.5915    1.0000 </r>
       <r>  -13.0298    1.0000 </r>
       <r>   -2.3204    1.0000 </r>
       <r>   -1.5594    1.0000 </r>
       <r>   -1.3153    1.0000 </r>
       <r>    7.0610    0.0000 </r>
       <r>    7.6676    0.0000 </r>
       <r>   10.2233    0.0000 </r>
       <r>   12.8255    0.0000 </r>
       <r>   13.2715    0.0000 </r>
       <r>   15.7274    0.0000 </r>
       <r>   15.9757    0.0000 </r>
       <r>   16.6843    0.0000 </r>
       <r>   16.9868    0.0000 </r>
      </set>
      <set comment="kpoint 17">
       <r>  -21.6018    1.0000 </r>
       <r>  -21.5911    1.0000 </r>
       <r>  -21.5873    1.0000 </r>
       <r>  -13.1335    1.0000 </r>
       <r>   -2.1196    1.0000 </r>
       <r>   -1.3368    1.0000 </r>
       <r>   -1.0762    1.0000 </r>
       <r>    7.0665    0.0000 </r>
       <r>    8.4846    0.0000 </r>
       <r>    9.4304    0.0000 </r>
       <r>   11.4789    0.0000 </r>
       <r>   12.2355    0.0000 </r>
       <r>   14.6545    0.0000 </r>
       <r>   16.7988    0.0000 </r>
       <r>   17.6197    0.0000 </r>
       <r>   17.8168    0.0000 </r>
      </set>
      <set comment="kpoint 18">
       <r>  -21.6054    1.0000 </r>
       <r>  -21.5935    1.0000 </r>
       <r>  -21.5890    1.0000 </r>
       <r>  -13.0552    1.0000 </r>
       <r>   -2.2983    1.0000 </r>
       <r>   -1.5799    1.0000 </r>
       <r>   -1.1938    1.0000 </r>
       <r>    7.7357    0.0000 </r>
       <r>    8.6651    0.0000 </r>
       <r>    9.1344    0.0000 </r>
       <r>   11.1770    0.0000 </r>
       <r>   13.3727    0.0000 </r>
       <r>   14.7573    0.0000 </r>
       <r>   16.0943    0.0000 </r>
       <r>   17.5690    0.0000 </r>
       <r>   18.0041    0.0000 </r>
      </set>
      <set comment="kpoint 19">
       <r>  -21.6024    1.0000 </r>
       <r>  -21.5939    1.0000 </r>
       <r>  -21.5923    1.0000 </r>
       <r>  -13.0378    1.0000 </r>
       <r>   -2.2424    1.0000 </r>
       <r>   -1.5568    1.0000 </r>
       <r>   -1.3868    1.0000 </r>
       <r>    7.4844    0.0000 </r>
       <r>    7.9989    0.0000 </r>
       <r>    9.5921    0.0000 </r>
       <r>   11.8078    0.0000 </r>
       <r>   13.8374    0.0000 </r>
       <r>   15.2008    0.0000 </r>
       <r>   15.9680    0.0000 </r>
       <r>   16.8744    0.0000 </r>
       <r>   18.1811    0.0000 </r>
      </set>
      <set comment="kpoint 20">
       <r>  -21.5992    1.0000 </r>
       <r>  -21.5987    1.0000 </r>
       <r>  -21.5915    1.0000 </r>
       <r>  -13.0237    1.0000 </r>
       <r>   -2.0090    1.0000 </r>
       <r>   -1.9457    1.0000 </r>
       <r>   -1.3685    1.0000 </r>
       <r>    7.9936    0.0000 </r>
       <r>    8.5045    0.0000 </r>
       <r>    9.2708    0.0000 </r>
       <r>   10.9732    0.0000 </r>
       <r>   13.8660    0.0000 </r>
       <r>   14.6400    0.0000 </r>
       <r>   16.4347    0.0000 </r>
       <r>   16.9688    0.0000 </r>
       <r>   18.6217    0.0000 </r>
      </set>
     </set>
     <set comment="spin 2">
      <set comment="kpoint 1">
       <r>  -21.5859    1.0000 </r>
       <r>  -21.5858    1.0000 </r>
       <r>  -21.5858    1.0000 </r>
       <r>  -13.4134    1.0000 </r>
       <r>   -0.7610    1.0000 </r>
       <r>   -0.7610    1.0000 </r>
       <r>   -0.7610    1.0000 </r>
       <r>    4.3159    0.0000 </r>
       <r>   10.3593    0.0000 </r>
       <r>   10.3593    0.0000 </r>
       <r>   10.3594    0.0000 </r>
       <r>   12.5292    0.0000 </r>
       <r>   12.5292    0.0000 </r>
       <r>   14.0868    0.0000 </r>
       <r>   16.2947    0.0000 </r>
       <r>   16.2947    0.0000 </r>
      </set>
      <set comment="kpoint 2">
       <r>  -21.5903    1.0000 </r>
       <r>  -21.5855    1.0000 </r>
       <r>  -21.5854    1.0000 </r>
       <r>  -13.3537    1.0000 </r>
       <r>   -1.2197    1.0000 </r>
       <r>   -0.8104    1.0000 </r>
       <r>   -0.8104    1.0000 </r>
       <r>    4.9413    0.0000 </r>
       <r>    9.7091    0.0000 </r>
       <r>   10.5994    0.0000 </r>
       <r>   10.5995    0.0000 </r>
       <r>   12.2348    0.0000 </r>
       <r>   12.2348    0.0000 </r>
       <r>   15.1100    0.0000 </r>
       <r>   16.2634    0.0000 </r>
       <r>   17.3240    0.0000 </r>
      </set>
      <set comment="kpoint 3">
       <r>  -21.6025    1.0000 </r>
       <r>  -21.5865    1.0000 </r>
       <r>  -21.5864    1.0000 </r>
       <r>  -13.2152    1.0000 </r>
       <r>   -2.0447    1.0000 </r>
       <r>   -0.9220    1.0000 </r>
       <r>   -0.9220    1.0000 </r>
       <r>    6.0266    0.0000 </r>
       <r>    9.2153    0.0000 </r>
       <r>   10.5676    0.0000 </r>
       <r>   10.5676    0.0000 </r>
       <r>   12.7820    0.0000 </r>
       <r>   12.7820    0.0000 </r>
       <r>   14.6288    0.0000 </r>
       <r>   18.9773    0.0000 </r>
       <r>   19.5432    0.0000 </r>
      </set>
      <set comment="kpoint 4">
       <r>  -21.6122    1.0000 </r>
       <r>  -21.5871    1.0000 </r>
       <r>  -21.5871    1.0000 </r>
       <r>  -13.0991    1.0000 </r>
       <r>   -2.5936    1.0000 </r>
       <r>   -1.0071    1.0000 </r>
       <r>   -1.0071    1.0000 </r>
       <r>    6.4700    0.0000 </r>
       <r>    9.6716    0.0000 </r>
       <r>   10.2613    0.0000 </r>
       <r>   10.2613    0.0000 </r>
       <r>   14.2066    0.0000 </r>
       <r>   14.6181    0.0000 </r>
       <r>   14.6181    0.0000 </r>
       <r>   17.1618    0.0000 </r>
       <r>   17.4201    0.0000 </r>
      </set>
      <set comment="kpoint 5">
       <r>  -21.5899    1.0000 </r>
       <r>  -21.5865    1.0000 </r>
       <r>  -21.5865    1.0000 </r>
       <r>  -13.3359    1.0000 </r>
       <r>   -1.2418    1.0000 </r>
       <r>   -0.8819    1.0000 </r>
       <r>   -0.8819    1.0000 </r>
       <r>    5.1453    0.0000 </r>
       <r>    9.3603    0.0000 </r>
       <r>   10.8356    0.0000 </r>
       <r>   10.8356    0.0000 </r>
       <r>   11.3243    0.0000 </r>
       <r>   12.8201    0.0000 </r>
       <r>   15.8211    0.0000 </r>
       <r>   16.8369    0.0000 </r>
       <r>   16.8370    0.0000 </r>
      </set>
      <set comment="kpoint 6">
       <r>  -21.5986    1.0000 </r>
       <r>  -21.5880    1.0000 </r>
       <r>  -21.5873    1.0000 </r>
       <r>  -13.2282    1.0000 </r>
       <r>   -1.8342    1.0000 </r>
       <r>   -1.0068    1.0000 </r>
       <r>   -1.0027    1.0000 </r>
       <r>    6.1238    0.0000 </r>
       <r>    8.7995    0.0000 </r>
       <r>   10.2371    0.0000 </r>
       <r>   11.0890    0.0000 </r>
       <r>   11.8396    0.0000 </r>
       <r>   13.3162    0.0000 </r>
       <r>   16.0839    0.0000 </r>
       <r>   18.1840    0.0000 </r>
       <r>   18.3688    0.0000 </r>
      </set>
      <set comment="kpoint 7">
       <r>  -21.6078    1.0000 </r>
       <r>  -21.5886    1.0000 </r>
       <r>  -21.5882    1.0000 </r>
       <r>  -13.1076    1.0000 </r>
       <r>   -2.3831    1.0000 </r>
       <r>   -1.1797    1.0000 </r>
       <r>   -1.0807    1.0000 </r>
       <r>    6.8640    0.0000 </r>
       <r>    9.0559    0.0000 </r>
       <r>    9.6671    0.0000 </r>
       <r>   10.7849    0.0000 </r>
       <r>   13.2470    0.0000 </r>
       <r>   14.9219    0.0000 </r>
       <r>   15.6549    0.0000 </r>
       <r>   16.9262    0.0000 </r>
       <r>   17.3895    0.0000 </r>
      </set>
      <set comment="kpoint 8">
       <r>  -21.6108    1.0000 </r>
       <r>  -21.5902    1.0000 </r>
       <r>  -21.5879    1.0000 </r>
       <r>  -13.0681    1.0000 </r>
       <r>   -2.5366    1.0000 </r>
       <r>   -1.2883    1.0000 </r>
       <r>   -1.0642    1.0000 </r>
       <r>    7.0082    0.0000 </r>
       <r>    9.2779    0.0000 </r>
       <r>    9.7785    0.0000 </r>
       <r>   10.5785    0.0000 </r>
       <r>   14.4851    0.0000 </r>
       <r>   14.5065    0.0000 </r>
       <r>   15.4424    0.0000 </r>
       <r>   16.2858    0.0000 </r>
       <r>   17.6461    0.0000 </r>
      </set>
      <set comment="kpoint 9">
       <r>  -21.6054    1.0000 </r>
       <r>  -21.5901    1.0000 </r>
       <r>  -21.5866    1.0000 </r>
       <r>  -13.1423    1.0000 </r>
       <r>   -2.2266    1.0000 </r>
       <r>   -1.2418    1.0000 </r>
       <r>   -0.9627    1.0000 </r>
       <r>    6.7569    0.0000 </r>
       <r>    9.0577    0.0000 </r>
       <r>    9.8155    0.0000 </r>
       <r>   10.7554    0.0000 </r>
       <r>   12.4533    0.0000 </r>
       <r>   14.5622    0.0000 </r>
       <r>   15.7387    0.0000 </r>
       <r>   16.7618    0.0000 </r>
       <r>   18.8131    0.0000 </r>
      </set>
      <set comment="kpoint 10">
       <r>  -21.5962    1.0000 </r>
       <r>  -21.5881    1.0000 </r>
       <r>  -21.5856    1.0000 </r>
       <r>  -13.2696    1.0000 </r>
       <r>   -1.6549    1.0000 </r>
       <r>   -1.0309    1.0000 </r>
       <r>   -0.8483    1.0000 </r>
       <r>    5.7550    0.0000 </r>
       <r>    9.1583    0.0000 </r>
       <r>   10.4753    0.0000 </r>
       <r>   11.0643    0.0000 </r>
       <r>   11.4073    0.0000 </r>
       <r>   13.0064    0.0000 </r>
       <r>   16.2132    0.0000 </r>
       <r>   16.5509    0.0000 </r>
       <r>   18.1392    0.0000 </r>
      </set>
      <set comment="kpoint 11">
       <r>  -21.5995    1.0000 </r>
       <r>  -21.5901    1.0000 </r>
       <r>  -21.5901    1.0000 </r>
       <r>  -13.1716    1.0000 </r>
       <r>   -1.9752    1.0000 </r>
       <r>   -1.1371    1.0000 </r>
       <r>   -1.1371    1.0000 </r>
       <r>    6.5924    0.0000 </r>
       <r>    8.0964    0.0000 </r>
       <r>    9.8354    0.0000 </r>
       <r>   12.0464    0.0000 </r>
       <r>   12.0464    0.0000 </r>
       <r>   13.5772    0.0000 </r>
       <r>   18.1639    0.0000 </r>
       <r>   18.1639    0.0000 </r>
       <r>   19.2117    0.0000 </r>
      </set>
      <set comment="kpoint 12">
       <r>  -21.6032    1.0000 </r>
       <r>  -21.5923    1.0000 </r>
       <r>  -21.5908    1.0000 </r>
       <r>  -13.0865    1.0000 </r>
       <r>   -2.2348    1.0000 </r>
       <r>   -1.3685    1.0000 </r>
       <r>   -1.2226    1.0000 </r>
       <r>    7.1439    0.0000 </r>
       <r>    7.9813    0.0000 </r>
       <r>    9.5451    0.0000 </r>
       <r>   12.0532    0.0000 </r>
       <r>   13.0015    0.0000 </r>
       <r>   14.8655    0.0000 </r>
       <r>   16.7770    0.0000 </r>
       <r>   17.3535    0.0000 </r>
       <r>   18.5037    0.0000 </r>
      </set>
      <set comment="kpoint 13">
       <r>  -21.6050    1.0000 </r>
       <r>  -21.5966    1.0000 </r>
       <r>  -21.5902    1.0000 </r>
       <r>  -13.0372    1.0000 </r>
       <r>   -2.2510    1.0000 </r>
       <r>   -1.7339    1.0000 </r>
       <r>   -1.2029    1.0000 </r>
       <r>    7.5789    0.0000 </r>
       <r>    8.4781    0.0000 </r>
       <r>    9.4974    0.0000 </r>
       <r>   11.5755    0.0000 </r>
       <r>   13.0009    0.0000 </r>
       <r>   14.8165    0.0000 </r>
       <r>   16.6058    0.0000 </r>
       <r>   17.4178    0.0000 </r>
       <r>   18.4461    0.0000 </r>
      </set>
      <set comment="kpoint 14">
       <r>  -21.6048    1.0000 </r>
       <r>  -21.5963    1.0000 </r>
       <r>  -21.5880    1.0000 </r>
       <r>  -13.0626    1.0000 </r>
       <r>   -2.2044    1.0000 </r>
       <r>   -1.7316    1.0000 </r>
       <r>   -1.0894    1.0000 </r>
       <r>    7.8017    0.0000 </r>
       <r>    8.8103    0.0000 </r>
       <r>    9.0743    0.0000 </r>
       <r>   11.2021    0.0000 </r>
       <r>   13.0760    0.0000 </r>
       <r>   13.9370    0.0000 </r>
       <r>   16.6759    0.0000 </r>
       <r>   17.8681    0.0000 </r>
       <r>   18.5466    0.0000 </r>
      </set>
      <set comment="kpoint 15">
       <r>  -21.6042    1.0000 </r>
       <r>  -21.5925    1.0000 </r>
       <r>  -21.5925    1.0000 </r>
       <r>  -13.0513    1.0000 </r>
       <r>   -2.3595    1.0000 </r>
       <r>   -1.3228    1.0000 </r>
       <r>   -1.3228    1.0000 </r>
       <r>    6.8266    0.0000 </r>
       <r>    7.4100    0.0000 </r>
       <r>   10.2536    0.0000 </r>
       <r>   13.5683    0.0000 </r>
       <r>   13.5683    0.0000 </r>
       <r>   14.4097    0.0000 </r>
       <r>   16.7896    0.0000 </r>
       <r>   16.8167    0.0000 </r>
       <r>   16.8167    0.0000 </r>
      </set>
      <set comment="kpoint 16">
       <r>  -21.6039    1.0000 </r>
       <r>  -21.5959    1.0000 </r>
       <r>  -21.5923    1.0000 </r>
       <r>  -13.0294    1.0000 </r>
       <r>   -2.3198    1.0000 </r>
       <r>   -1.5587    1.0000 </r>
       <r>   -1.3146    1.0000 </r>
       <r>    7.0623    0.0000 </r>
       <r>    7.6674    0.0000 </r>
       <r>   10.2232    0.0000 </r>
       <r>   12.8272    0.0000 </r>
       <r>   13.2730    0.0000 </r>
       <r>   15.7276    0.0000 </r>
       <r>   15.9773    0.0000 </r>
       <r>   16.6844    0.0000 </r>
       <r>   16.9879    0.0000 </r>
      </set>
      <set comment="kpoint 17">
       <r>  -21.6027    1.0000 </r>
       <r>  -21.5919    1.0000 </r>
       <r>  -21.5881    1.0000 </r>
       <r>  -13.1331    1.0000 </r>
       <r>   -2.1189    1.0000 </r>
       <r>   -1.3362    1.0000 </r>
       <r>   -1.0756    1.0000 </r>
       <r>    7.0670    0.0000 </r>
       <r>    8.4844    0.0000 </r>
       <r>    9.4317    0.0000 </r>
       <r>   11.4805    0.0000 </r>
       <r>   12.2366    0.0000 </r>
       <r>   14.6559    0.0000 </r>
       <r>   16.7994    0.0000 </r>
       <r>   17.6200    0.0000 </r>
       <r>   17.8169    0.0000 </r>
      </set>
      <set comment="kpoint 18">
       <r>  -21.6062    1.0000 </r>
       <r>  -21.5943    1.0000 </r>
       <r>  -21.5898    1.0000 </r>
       <r>  -13.0548    1.0000 </r>
       <r>   -2.2977    1.0000 </r>
       <r>   -1.5793    1.0000 </r>
       <r>   -1.1932    1.0000 </r>
       <r>    7.7359    0.0000 </r>
       <r>    8.6662    0.0000 </r>
       <r>    9.1344    0.0000 </r>
       <r>   11.1786    0.0000 </r>
       <r>   13.3738    0.0000 </r>
       <r>   14.7584    0.0000 </r>
       <r>   16.0951    0.0000 </r>
       <r>   17.5689    0.0000 </r>
       <r>   18.0044    0.0000 </r>
      </set>
      <set comment="kpoint 19">
       <r>  -21.6032    1.0000 </r>
       <r>  -21.5947    1.0000 </r>
       <r>  -21.5931    1.0000 </r>
       <r>  -13.0374    1.0000 </r>
       <r>   -2.2418    1.0000 </r>
       <r>   -1.5561    1.0000 </r>
       <r>   -1.3861    1.0000 </r>
       <r>    7.4857    0.0000 </r>
       <r>    7.9986    0.0000 </r>
       <r>    9.5922    0.0000 </r>
       <r>   11.8093    0.0000 </r>
       <r>   13.8388    0.0000 </r>
       <r>   15.2020    0.0000 </r>
       <r>   15.9688    0.0000 </r>
       <r>   16.8746    0.0000 </r>
       <r>   18.1823    0.0000 </r>
      </set>
      <set comment="kpoint 20">
       <r>  -21.6000    1.0000 </r>
       <r>  -21.5995    1.0000 </r>
       <r>  -21.5923    1.0000 </r>
       <r>  -13.0233    1.0000 </r>
       <r>   -2.0084    1.0000 </r>
       <r>   -1.9450    1.0000 </r>
       <r>   -1.3678    1.0000 </r>
       <r>    7.9947    0.0000 </r>
       <r>    8.5045    0.0000 </r>
       <r>    9.2705    0.0000 </r>
       <r>   10.9749    0.0000 </r>
       <r>   13.8674    0.0000 </r>
       <r>   14.6409    0.0000 </r>
       <r>   16.4360    0.0000 </r>
       <r>   16.9690    0.0000 </r>
       <r>   18.6229    0.0000 </r>
      </set>
     </set>
    </set>
   </array>
  </eigenvalues>
  <separator name="orbital magnetization" >
   <v name="MAGDIPOLOUT">      0.00000000      0.00000000      0.00000000</v>
  </separator>
  <dos>
   <i name="efermi">     -0.76089747 </i>
   <total>
    <array>
     <dimension dim="1">gridpoints</dimension>
     <dimension dim="2">spin</dimension>
     <field>energy</field>
     <field>total</field>
     <field>integrated</field>
     <set>
      <set comment="spin 1">
       <r>   -23.6699     0.0000     0.0000 </r>
       <r>   -23.5190     0.0000     0.0000 </r>
       <r>   -23.3681     0.0000     0.0000 </r>
       <r>   -23.2172     0.0000     0.0000 </r>
       <r>   -23.0663     0.0000     0.0000 </r>
       <r>   -22.9154     0.0000     0.0000 </r>
       <r>   -22.7645     0.0000     0.0000 </r>
       <r>   -22.6136     0.0000     0.0000 </r>
       <r>   -22.4627     0.0000     0.0000 </r>
       <r>   -22.3118     0.0000     0.0000 </r>
       <r>   -22.1609     0.0000     0.0000 </r>
       <r>   -22.0100     0.0000     0.0000 </r>
       <r>   -21.8591     0.0000     0.0000 </r>
       <r>   -21.7082     0.0000     0.0000 </r>
       <r>   -21.5573    19.8802     3.0000 </r>
       <r>   -21.4064     0.0000     3.0000 </r>
       <r>   -21.2555     0.0000     3.0000 </r>
       <r>   -21.1046     0.0000     3.0000 </r>
       <r>   -20.9537     0.0000     3.0000 </r>
       <r>   -20.8028     0.0000     3.0000 </r>
       <r>   -20.6519     0.0000     3.0000 </r>
       <r>   -20.5010     0.0000     3.0000 </r>
       <r>   -20.3501     0.0000     3.0000 </r>
       <r>   -20.1991     0.0000     3.0000 </r>
       <r>   -20.0482     0.0000     3.0000 </r>
       <r>   -19.8973     0.0000     3.0000 </r>
       <r>   -19.7464     0.0000     3.0000 </r>
       <r>   -19.5955     0.0000     3.0000 </r>
       <r>   -19.4446     0.0000     3.0000 </r>
       <r>   -19.2937     0.0000     3.0000 </r>
       <r>   -19.1428     0.0000     3.0000 </r>
       <r>   -18.9919     0.0000     3.0000 </r>
       <r>   -18.8410     0.0000     3.0000 </r>
       <r>   -18.6901     0.0000     3.0000 </r>
       <r>   -18.5392     0.0000     3.0000 </r>
       <r>   -18.3883     0.0000     3.0000 </r>
       <r>   -18.2374     0.0000     3.0000 </r>
       <r>   -18.0865     0.0000     3.0000 </r>
       <r>   -17.9356     0.0000     3.0000 </r>
       <r>   -17.7847     0.0000     3.0000 </r>
       <r>   -17.6338     0.0000     3.0000 </r>
       <r>   -17.4829     0.0000     3.0000 </r>
       <r>   -17.3320     0.0000     3.0000 </r>
       <r>   -17.1811     0.0000     3.0000 </r>
       <r>   -17.0302     0.0000     3.0000 </r>
       <r>   -16.8793     0.0000     3.0000 </r>
       <r>   -16.7284     0.0000     3.0000 </r>
       <r>   -16.5775     0.0000     3.0000 </r>
       <r>   -16.4266     0.0000     3.0000 </r>
       <r>   -16.2757     0.0000     3.0000 </r>
       <r>   -16.1247     0.0000     3.0000 </r>
       <r>   -15.9738     0.0000     3.0000 </r>
       <r>   -15.8229     0.0000     3.0000 </r>
       <r>   -15.6720     0.0000     3.0000 </r>
       <r>   -15.5211     0.0000     3.0000 </r>
       <r>   -15.3702     0.0000     3.0000 </r>
       <r>   -15.2193     0.0000     3.0000 </r>
       <r>   -15.0684     0.0000     3.0000 </r>
       <r>   -14.9175     0.0000     3.0000 </r>
       <r>   -14.7666     0.0000     3.0000 </r>
       <r>   -14.6157     0.0000     3.0000 </r>
       <r>   -14.4648     0.0000     3.0000 </r>
       <r>   -14.3139     0.0000     3.0000 </r>
       <r>   -14.1630     0.0000     3.0000 </r>
       <r>   -14.0121     0.0000     3.0000 </r>
       <r>   -13.8612     0.0000     3.0000 </r>
       <r>   -13.7103     0.0000     3.0000 </r>
       <r>   -13.5594     0.0000     3.0000 </r>
       <r>   -13.4085     0.0036     3.0000 </r>
       <r>   -13.2576     0.9975     3.0703 </r>
       <r>   -13.1067     4.5060     3.3595 </r>
       <r>   -12.9558     2.5309     4.0000 </r>
       <r>   -12.8049     0.0000     4.0000 </r>
       <r>   -12.6540     0.0000     4.0000 </r>
       <r>   -12.5031     0.0000     4.0000 </r>
       <r>   -12.3522     0.0000     4.0000 </r>
       <r>   -12.2013     0.0000     4.0000 </r>
       <r>   -12.0504     0.0000     4.0000 </r>
       <r>   -11.8994     0.0000     4.0000 </r>
       <r>   -11.7485     0.0000     4.0000 </r>
       <r>   -11.5976     0.0000     4.0000 </r>
       <r>   -11.4467     0.0000     4.0000 </r>
       <r>   -11.2958     0.0000     4.0000 </r>
       <r>   -11.1449     0.0000     4.0000 </r>
       <r>   -10.9940     0.0000     4.0000 </r>
       <r>   -10.8431     0.0000     4.0000 </r>
       <r>   -10.6922     0.0000     4.0000 </r>
       <r>   -10.5413     0.0000     4.0000 </r>
       <r>   -10.3904     0.0000     4.0000 </r>
       <r>   -10.2395     0.0000     4.0000 </r>
       <r>   -10.0886     0.0000     4.0000 </r>
       <r>    -9.9377     0.0000     4.0000 </r>
       <r>    -9.7868     0.0000     4.0000 </r>
       <r>    -9.6359     0.0000     4.0000 </r>
       <r>    -9.4850     0.0000     4.0000 </r>
       <r>    -9.3341     0.0000     4.0000 </r>
       <r>    -9.1832     0.0000     4.0000 </r>
       <r>    -9.0323     0.0000     4.0000 </r>
       <r>    -8.8814     0.0000     4.0000 </r>
       <r>    -8.7305     0.0000     4.0000 </r>
       <r>    -8.5796     0.0000     4.0000 </r>
       <r>    -8.4287     0.0000     4.0000 </r>
       <r>    -8.2778     0.0000     4.0000 </r>
       <r>    -8.1269     0.0000     4.0000 </r>
       <r>    -7.9760     0.0000     4.0000 </r>
       <r>    -7.8250     0.0000     4.0000 </r>
       <r>    -7.6741     0.0000     4.0000 </r>
       <r>    -7.5232     0.0000     4.0000 </r>
       <r>    -7.3723     0.0000     4.0000 </r>
       <r>    -7.2214     0.0000     4.0000 </r>
       <r>    -7.0705     0.0000     4.0000 </r>
       <r>    -6.9196     0.0000     4.0000 </r>
       <r>    -6.7687     0.0000     4.0000 </r>
       <r>    -6.6178     0.0000     4.0000 </r>
       <r>    -6.4669     0.0000     4.0000 </r>
       <r>    -6.3160     0.0000     4.0000 </r>
       <r>    -6.1651     0.0000     4.0000 </r>
       <r>    -6.0142     0.0000     4.0000 </r>
       <r>    -5.8633     0.0000     4.0000 </r>
       <r>    -5.7124     0.0000     4.0000 </r>
       <r>    -5.5615     0.0000     4.0000 </r>
       <r>    -5.4106     0.0000     4.0000 </r>
       <r>    -5.2597     0.0000     4.0000 </r>
       <r>    -5.1088     0.0000     4.0000 </r>
       <r>    -4.9579     0.0000     4.0000 </r>
       <r>    -4.8070     0.0000     4.0000 </r>
       <r>    -4.6561     0.0000     4.0000 </r>
       <r>    -4.5052     0.0000     4.0000 </r>
       <r>    -4.3543     0.0000     4.0000 </r>
       <r>    -4.2034     0.0000     4.0000 </r>
       <r>    -4.0525     0.0000     4.0000 </r>
       <r>    -3.9016     0.0000     4.0000 </r>
       <r>    -3.7506     0.0000     4.0000 </r>
       <r>    -3.5997     0.0000     4.0000 </r>
       <r>    -3.4488     0.0000     4.0000 </r>
       <r>    -3.2979     0.0000     4.0000 </r>
       <r>    -3.1470     0.0000     4.0000 </r>
       <r>    -2.9961     0.0000     4.0000 </r>
       <r>    -2.8452     0.0000     4.0000 </r>
       <r>    -2.6943     0.0000     4.0000 </r>
       <r>    -2.5434     0.4279     4.0166 </r>
       <r>    -2.3925     0.8520     4.1072 </r>
       <r>    -2.2416     4.1749     4.4555 </r>
       <r>    -2.0907     1.0700     4.7673 </r>
       <r>    -1.9398     0.5407     4.8683 </r>
       <r>    -1.7889     0.9019     4.9653 </r>
       <r>    -1.6380     1.2099     5.1336 </r>
       <r>    -1.4871     1.4746     5.3411 </r>
       <r>    -1.3362     3.1005     5.6238 </r>
       <r>    -1.1853     3.5115     6.1064 </r>
       <r>    -1.0344     3.2810     6.6279 </r>
       <r>    -0.8835     1.0027     6.9310 </r>
       <r>    -0.7326     0.2318     7.0000 </r>
       <r>    -0.5817     0.0000     7.0000 </r>
       <r>    -0.4308     0.0000     7.0000 </r>
       <r>    -0.2799     0.0000     7.0000 </r>
       <r>    -0.1290     0.0000     7.0000 </r>
       <r>     0.0219     0.0000     7.0000 </r>
       <r>     0.1728     0.0000     7.0000 </r>
       <r>     0.3237     0.0000     7.0000 </r>
       <r>     0.4747     0.0000     7.0000 </r>
       <r>     0.6256     0.0000     7.0000 </r>
       <r>     0.7765     0.0000     7.0000 </r>
       <r>     0.9274     0.0000     7.0000 </r>
       <r>     1.0783     0.0000     7.0000 </r>
       <r>     1.2292     0.0000     7.0000 </r>
       <r>     1.3801     0.0000     7.0000 </r>
       <r>     1.5310     0.0000     7.0000 </r>
       <r>     1.6819     0.0000     7.0000 </r>
       <r>     1.8328     0.0000     7.0000 </r>
       <r>     1.9837     0.0000     7.0000 </r>
       <r>     2.1346     0.0000     7.0000 </r>
       <r>     2.2855     0.0000     7.0000 </r>
       <r>     2.4364     0.0000     7.0000 </r>
       <r>     2.5873     0.0000     7.0000 </r>
       <r>     2.7382     0.0000     7.0000 </r>
       <r>     2.8891     0.0000     7.0000 </r>
       <r>     3.0400     0.0000     7.0000 </r>
       <r>     3.1909     0.0000     7.0000 </r>
       <r>     3.3418     0.0000     7.0000 </r>
       <r>     3.4927     0.0000     7.0000 </r>
       <r>     3.6436     0.0000     7.0000 </r>
       <r>     3.7945     0.0000     7.0000 </r>
       <r>     3.9454     0.0000     7.0000 </r>
       <r>     4.0963     0.0000     7.0000 </r>
       <r>     4.2472     0.0000     7.0000 </r>
       <r>     4.3981     0.0007     7.0000 </r>
       <r>     4.5491     0.0059     7.0005 </r>
       <r>     4.7000     0.0159     7.0020 </r>
       <r>     4.8509     0.0309     7.0055 </r>
       <r>     5.0018     0.0432     7.0114 </r>
       <r>     5.1527     0.0504     7.0184 </r>
       <r>     5.3036     0.0610     7.0268 </r>
       <r>     5.4545     0.0726     7.0368 </r>
       <r>     5.6054     0.0851     7.0487 </r>
       <r>     5.7563     0.0985     7.0625 </r>
       <r>     5.9072     0.1147     7.0786 </r>
       <r>     6.0581     0.1357     7.0974 </r>
       <r>     6.2090     0.1678     7.1201 </r>
       <r>     6.3599     0.2097     7.1485 </r>
       <r>     6.5108     0.2705     7.1841 </r>
       <r>     6.6617     0.3663     7.2320 </r>
       <r>     6.8126     0.4743     7.2956 </r>
       <r>     6.9635     0.5763     7.3761 </r>
       <r>     7.1144     0.6717     7.4683 </r>
       <r>     7.2653     0.6873     7.5730 </r>
       <r>     7.4162     0.6679     7.6751 </r>
       <r>     7.5671     0.7202     7.7799 </r>
       <r>     7.7180     0.8760     7.8986 </r>
       <r>     7.8689     0.6365     8.0245 </r>
       <r>     8.0198     0.3311     8.0953 </r>
       <r>     8.1707     0.4080     8.1497 </r>
       <r>     8.3216     0.5156     8.2192 </r>
       <r>     8.4725     0.6401     8.3062 </r>
       <r>     8.6234     1.0315     8.4447 </r>
       <r>     8.7744     0.7271     8.5698 </r>
       <r>     8.9253     0.7889     8.6841 </r>
       <r>     9.0762     0.7691     8.8047 </r>
       <r>     9.2271     1.3372     8.9646 </r>
       <r>     9.3780     1.3917     9.1766 </r>
       <r>     9.5289     1.4749     9.3880 </r>
       <r>     9.6798     0.8903     9.5558 </r>
       <r>     9.8307     0.7265     9.6774 </r>
       <r>     9.9816     0.5450     9.7730 </r>
       <r>    10.1325     0.3862     9.8430 </r>
       <r>    10.2834     0.2751     9.8945 </r>
       <r>    10.4343     0.4277     9.9419 </r>
       <r>    10.5852     0.6449    10.0274 </r>
       <r>    10.7361     0.6575    10.1268 </r>
       <r>    10.8870     0.7825    10.2351 </r>
       <r>    11.0379     1.0082    10.3665 </r>
       <r>    11.1888     1.1398    10.5300 </r>
       <r>    11.3397     0.6729    10.6638 </r>
       <r>    11.4906     0.5213    10.7502 </r>
       <r>    11.6415     0.5200    10.8279 </r>
       <r>    11.7924     0.5236    10.9070 </r>
       <r>    11.9433     0.5031    10.9849 </r>
       <r>    12.0942     0.4037    11.0543 </r>
       <r>    12.2451     0.3754    11.1126 </r>
       <r>    12.3960     0.4080    11.1717 </r>
       <r>    12.5469     0.4191    11.2348 </r>
       <r>    12.6978     0.4266    11.2983 </r>
       <r>    12.8488     0.4547    11.3647 </r>
       <r>    12.9997     0.4716    11.4348 </r>
       <r>    13.1506     0.8550    11.5402 </r>
       <r>    13.3015     0.9034    11.6744 </r>
       <r>    13.4524     0.8850    11.8129 </r>
       <r>    13.6033     0.6944    11.9326 </r>
       <r>    13.7542     0.5510    12.0259 </r>
       <r>    13.9051     0.4095    12.1118 </r>
       <r>    14.0560     0.2795    12.1530 </r>
       <r>    14.2069     0.3354    12.1988 </r>
       <r>    14.3578     0.4875    12.2625 </r>
       <r>    14.5087     0.5820    12.3397 </r>
       <r>    14.6596     1.4042    12.5063 </r>
       <r>    14.8105     1.4271    12.7551 </r>
       <r>    14.9614     0.5773    12.9034 </r>
       <r>    15.1123     0.3928    12.9746 </r>
       <r>    15.2632     0.3480    13.0293 </r>
       <r>    15.4141     0.3346    13.0807 </r>
       <r>    15.5650     0.3778    13.1339 </r>
       <r>    15.7159     0.4105    13.1939 </r>
       <r>    15.8668     0.4620    13.2593 </r>
       <r>    16.0177     0.7572    13.3468 </r>
       <r>    16.1686     1.1257    13.4900 </r>
       <r>    16.3195     1.2520    13.6709 </r>
       <r>    16.4704     0.9700    13.8451 </r>
       <r>    16.6213     0.6847    13.9729 </r>
       <r>    16.7722     0.8102    14.0712 </r>
       <r>    16.9231     1.0564    14.2007 </r>
       <r>    17.0741     0.9864    14.3554 </r>
       <r>    17.2250     1.1110    14.5113 </r>
       <r>    17.3759     1.2809    14.6925 </r>
       <r>    17.5268     1.2281    14.8875 </r>
       <r>    17.6777     0.8302    15.0396 </r>
       <r>    17.8286     0.7762    15.1580 </r>
       <r>    17.9795     1.0047    15.2891 </r>
       <r>    18.1304     1.2168    15.4581 </r>
       <r>    18.2813     1.2347    15.6448 </r>
       <r>    18.4322     0.9267    15.8120 </r>
       <r>    18.5831     0.4489    15.9238 </r>
       <r>    18.7340     0.1914    15.9662 </r>
       <r>    18.8849     0.0840    15.9843 </r>
       <r>    19.0358     0.0425    15.9936 </r>
       <r>    19.1867     0.0176    15.9979 </r>
       <r>    19.3376     0.0058    15.9996 </r>
       <r>    19.4885     0.0004    16.0000 </r>
       <r>    19.6394     0.0000    16.0000 </r>
       <r>    19.7903     0.0000    16.0000 </r>
       <r>    19.9412     0.0000    16.0000 </r>
       <r>    20.0921     0.0000    16.0000 </r>
       <r>    20.2430     0.0000    16.0000 </r>
       <r>    20.3939     0.0000    16.0000 </r>
       <r>    20.5448     0.0000    16.0000 </r>
       <r>    20.6957     0.0000    16.0000 </r>
       <r>    20.8466     0.0000    16.0000 </r>
       <r>    20.9975     0.0000    16.0000 </r>
       <r>    21.1485     0.0000    16.0000 </r>
       <r>    21.2994     0.0000    16.0000 </r>
       <r>    21.4503     0.0000    16.0000 </r>
       <r>    21.6012     0.0000    16.0000 </r>
      </set>
      <set comment="spin 2">
       <r>   -23.6699     0.0000     0.0000 </r>
       <r>   -23.5190     0.0000     0.0000 </r>
       <r>   -23.3681     0.0000     0.0000 </r>
       <r>   -23.2172     0.0000     0.0000 </r>
       <r>   -23.0663     0.0000     0.0000 </r>
       <r>   -22.9154     0.0000     0.0000 </r>
       <r>   -22.7645     0.0000     0.0000 </r>
       <r>   -22.6136     0.0000     0.0000 </r>
       <r>   -22.4627     0.0000     0.0000 </r>
       <r>   -22.3118     0.0000     0.0000 </r>
       <r>   -22.1609     0.0000     0.0000 </r>
       <r>   -22.0100     0.0000     0.0000 </r>
       <r>   -21.8591     0.0000     0.0000 </r>
       <r>   -21.7082     0.0000     0.0000 </r>
       <r>   -21.5573    19.8802     3.0000 </r>
       <r>   -21.4064     0.0000     3.0000 </r>
       <r>   -21.2555     0.0000     3.0000 </r>
       <r>   -21.1046     0.0000     3.0000 </r>
       <r>   -20.9537     0.0000     3.0000 </r>
       <r>   -20.8028     0.0000     3.0000 </r>
       <r>   -20.6519     0.0000     3.0000 </r>
       <r>   -20.5010     0.0000     3.0000 </r>
       <r>   -20.3501     0.0000     3.0000 </r>
       <r>   -20.1991     0.0000     3.0000 </r>
       <r>   -20.0482     0.0000     3.0000 </r>
       <r>   -19.8973     0.0000     3.0000 </r>
       <r>   -19.7464     0.0000     3.0000 </r>
       <r>   -19.5955     0.0000     3.0000 </r>
       <r>   -19.4446     0.0000     3.0000 </r>
       <r>   -19.2937     0.0000     3.0000 </r>
       <r>   -19.1428     0.0000     3.0000 </r>
       <r>   -18.9919     0.0000     3.0000 </r>
       <r>   -18.8410     0.0000     3.0000 </r>
       <r>   -18.6901     0.0000     3.0000 </r>
       <r>   -18.5392     0.0000     3.0000 </r>
       <r>   -18.3883     0.0000     3.0000 </r>
       <r>   -18.2374     0.0000     3.0000 </r>
       <r>   -18.0865     0.0000     3.0000 </r>
       <r>   -17.9356     0.0000     3.0000 </r>
       <r>   -17.7847     0.0000     3.0000 </r>
       <r>   -17.6338     0.0000     3.0000 </r>
       <r>   -17.4829     0.0000     3.0000 </r>
       <r>   -17.3320     0.0000     3.0000 </r>
       <r>   -17.1811     0.0000     3.0000 </r>
       <r>   -17.0302     0.0000     3.0000 </r>
       <r>   -16.8793     0.0000     3.0000 </r>
       <r>   -16.7284     0.0000     3.0000 </r>
       <r>   -16.5775     0.0000     3.0000 </r>
       <r>   -16.4266     0.0000     3.0000 </r>
       <r>   -16.2757     0.0000     3.0000 </r>
       <r>   -16.1247     0.0000     3.0000 </r>
       <r>   -15.9738     0.0000     3.0000 </r>
       <r>   -15.8229     0.0000     3.0000 </r>
       <r>   -15.6720     0.0000     3.0000 </r>
       <r>   -15.5211     0.0000     3.0000 </r>
       <r>   -15.3702     0.0000     3.0000 </r>
       <r>   -15.2193     0.0000     3.0000 </r>
       <r>   -15.0684     0.0000     3.0000 </r>
       <r>   -14.9175     0.0000     3.0000 </r>
       <r>   -14.7666     0.0000     3.0000 </r>
       <r>   -14.6157     0.0000     3.0000 </r>
       <r>   -14.4648     0.0000     3.0000 </r>
       <r>   -14.3139     0.0000     3.0000 </r>
       <r>   -14.1630     0.0000     3.0000 </r>
       <r>   -14.0121     0.0000     3.0000 </r>
       <r>   -13.8612     0.0000     3.0000 </r>
       <r>   -13.7103     0.0000     3.0000 </r>
       <r>   -13.5594     0.0000     3.0000 </r>
       <r>   -13.4085     0.0030     3.0000 </r>
       <r>   -13.2576     0.9942     3.0699 </r>
       <r>   -13.1067     4.4778     3.3577 </r>
       <r>   -12.9558     2.5309     4.0000 </r>
       <r>   -12.8049     0.0000     4.0000 </r>
       <r>   -12.6540     0.0000     4.0000 </r>
       <r>   -12.5031     0.0000     4.0000 </r>
       <r>   -12.3522     0.0000     4.0000 </r>
       <r>   -12.2013     0.0000     4.0000 </r>
       <r>   -12.0504     0.0000     4.0000 </r>
       <r>   -11.8994     0.0000     4.0000 </r>
       <r>   -11.7485     0.0000     4.0000 </r>
       <r>   -11.5976     0.0000     4.0000 </r>
       <r>   -11.4467     0.0000     4.0000 </r>
       <r>   -11.2958     0.0000     4.0000 </r>
       <r>   -11.1449     0.0000     4.0000 </r>
       <r>   -10.9940     0.0000     4.0000 </r>
       <r>   -10.8431     0.0000     4.0000 </r>
       <r>   -10.6922     0.0000     4.0000 </r>
       <r>   -10.5413     0.0000     4.0000 </r>
       <r>   -10.3904     0.0000     4.0000 </r>
       <r>   -10.2395     0.0000     4.0000 </r>
       <r>   -10.0886     0.0000     4.0000 </r>
       <r>    -9.9377     0.0000     4.0000 </r>
       <r>    -9.7868     0.0000     4.0000 </r>
       <r>    -9.6359     0.0000     4.0000 </r>
       <r>    -9.4850     0.0000     4.0000 </r>
       <r>    -9.3341     0.0000     4.0000 </r>
       <r>    -9.1832     0.0000     4.0000 </r>
       <r>    -9.0323     0.0000     4.0000 </r>
       <r>    -8.8814     0.0000     4.0000 </r>
       <r>    -8.7305     0.0000     4.0000 </r>
       <r>    -8.5796     0.0000     4.0000 </r>
       <r>    -8.4287     0.0000     4.0000 </r>
       <r>    -8.2778     0.0000     4.0000 </r>
       <r>    -8.1269     0.0000     4.0000 </r>
       <r>    -7.9760     0.0000     4.0000 </r>
       <r>    -7.8250     0.0000     4.0000 </r>
       <r>    -7.6741     0.0000     4.0000 </r>
       <r>    -7.5232     0.0000     4.0000 </r>
       <r>    -7.3723     0.0000     4.0000 </r>
       <r>    -7.2214     0.0000     4.0000 </r>
       <r>    -7.0705     0.0000     4.0000 </r>
       <r>    -6.9196     0.0000     4.0000 </r>
       <r>    -6.7687     0.0000     4.0000 </r>
       <r>    -6.6178     0.0000     4.0000 </r>
       <r>    -6.4669     0.0000     4.0000 </r>
       <r>    -6.3160     0.0000     4.0000 </r>
       <r>    -6.1651     0.0000     4.0000 </r>
       <r>    -6.0142     0.0000     4.0000 </r>
       <r>    -5.8633     0.0000     4.0000 </r>
       <r>    -5.7124     0.0000     4.0000 </r>
       <r>    -5.5615     0.0000     4.0000 </r>
       <r>    -5.4106     0.0000     4.0000 </r>
       <r>    -5.2597     0.0000     4.0000 </r>
       <r>    -5.1088     0.0000     4.0000 </r>
       <r>    -4.9579     0.0000     4.0000 </r>
       <r>    -4.8070     0.0000     4.0000 </r>
       <r>    -4.6561     0.0000     4.0000 </r>
       <r>    -4.5052     0.0000     4.0000 </r>
       <r>    -4.3543     0.0000     4.0000 </r>
       <r>    -4.2034     0.0000     4.0000 </r>
       <r>    -4.0525     0.0000     4.0000 </r>
       <r>    -3.9016     0.0000     4.0000 </r>
       <r>    -3.7506     0.0000     4.0000 </r>
       <r>    -3.5997     0.0000     4.0000 </r>
       <r>    -3.4488     0.0000     4.0000 </r>
       <r>    -3.2979     0.0000     4.0000 </r>
       <r>    -3.1470     0.0000     4.0000 </r>
       <r>    -2.9961     0.0000     4.0000 </r>
       <r>    -2.8452     0.0000     4.0000 </r>
       <r>    -2.6943     0.0000     4.0000 </r>
       <r>    -2.5434     0.4310     4.0163 </r>
       <r>    -2.3925     0.8497     4.1067 </r>
       <r>    -2.2416     4.3136     4.4529 </r>
       <r>    -2.0907     1.0738     4.7667 </r>
       <r>    -1.9398     0.5404     4.8680 </r>
       <r>    -1.7889     0.8986     4.9647 </r>
       <r>    -1.6380     1.2092     5.1329 </r>
       <r>    -1.4871     1.4745     5.3402 </r>
       <r>    -1.3362     3.0843     5.6219 </r>
       <r>    -1.1853     3.5110     6.1043 </r>
       <r>    -1.0344     3.2943     6.6259 </r>
       <r>    -0.8835     1.0086     6.9304 </r>
       <r>    -0.7326     0.2318     7.0000 </r>
       <r>    -0.5817     0.0000     7.0000 </r>
       <r>    -0.4308     0.0000     7.0000 </r>
       <r>    -0.2799     0.0000     7.0000 </r>
       <r>    -0.1290     0.0000     7.0000 </r>
       <r>     0.0219     0.0000     7.0000 </r>
       <r>     0.1728     0.0000     7.0000 </r>
       <r>     0.3237     0.0000     7.0000 </r>
       <r>     0.4747     0.0000     7.0000 </r>
       <r>     0.6256     0.0000     7.0000 </r>
       <r>     0.7765     0.0000     7.0000 </r>
       <r>     0.9274     0.0000     7.0000 </r>
       <r>     1.0783     0.0000     7.0000 </r>
       <r>     1.2292     0.0000     7.0000 </r>
       <r>     1.3801     0.0000     7.0000 </r>
       <r>     1.5310     0.0000     7.0000 </r>
       <r>     1.6819     0.0000     7.0000 </r>
       <r>     1.8328     0.0000     7.0000 </r>
       <r>     1.9837     0.0000     7.0000 </r>
       <r>     2.1346     0.0000     7.0000 </r>
       <r>     2.2855     0.0000     7.0000 </r>
       <r>     2.4364     0.0000     7.0000 </r>
       <r>     2.5873     0.0000     7.0000 </r>
       <r>     2.7382     0.0000     7.0000 </r>
       <r>     2.8891     0.0000     7.0000 </r>
       <r>     3.0400     0.0000     7.0000 </r>
       <r>     3.1909     0.0000     7.0000 </r>
       <r>     3.3418     0.0000     7.0000 </r>
       <r>     3.4927     0.0000     7.0000 </r>
       <r>     3.6436     0.0000     7.0000 </r>
       <r>     3.7945     0.0000     7.0000 </r>
       <r>     3.9454     0.0000     7.0000 </r>
       <r>     4.0963     0.0000     7.0000 </r>
       <r>     4.2472     0.0000     7.0000 </r>
       <r>     4.3981     0.0007     7.0000 </r>
       <r>     4.5491     0.0059     7.0005 </r>
       <r>     4.7000     0.0159     7.0020 </r>
       <r>     4.8509     0.0309     7.0055 </r>
       <r>     5.0018     0.0432     7.0114 </r>
       <r>     5.1527     0.0503     7.0183 </r>
       <r>     5.3036     0.0610     7.0267 </r>
       <r>     5.4545     0.0725     7.0368 </r>
       <r>     5.6054     0.0850     7.0487 </r>
       <r>     5.7563     0.0984     7.0625 </r>
       <r>     5.9072     0.1146     7.0785 </r>
       <r>     6.0581     0.1356     7.0973 </r>
       <r>     6.2090     0.1677     7.1201 </r>
       <r>     6.3599     0.2096     7.1484 </r>
       <r>     6.5108     0.2704     7.1840 </r>
       <r>     6.6617     0.3661     7.2319 </r>
       <r>     6.8126     0.4740     7.2954 </r>
       <r>     6.9635     0.5755     7.3758 </r>
       <r>     7.1144     0.6708     7.4679 </r>
       <r>     7.2653     0.6875     7.5726 </r>
       <r>     7.4162     0.6683     7.6747 </r>
       <r>     7.5671     0.7205     7.7796 </r>
[...]
       </set>
       <set comment="band 12">
        <r>  0.0000  0.0000  0.1553  0.0000  0.0000  0.0000  0.0000  0.0000  0.0000 </r>
        <r>  0.0000  0.0000  0.1409  0.0000  0.0000  0.0000  0.0000  0.0000  0.0000 </r>
       </set>
       <set comment="band 13">
        <r>  0.0000  0.0000  0.0000  0.0000  0.0000  0.0000  0.0000  0.0000  0.0000 </r>
        <r>  0.0000  0.0000  0.0000  0.0000  0.0000  0.0000  0.0000  0.0000  0.0000 </r>
       </set>
       <set comment="band 14">
        <r>  0.0114  0.0000  0.0000  0.0000  0.0000  0.0000  0.0000  0.0000  0.0000 </r>
        <r>  0.1215  0.0096  0.0000  0.0191  0.0000  0.0000  0.0000  0.0000  0.0000 </r>
       </set>
       <set comment="band 15">
        <r>  0.0000  0.0255  0.0004  0.0128  0.0000  0.0000  0.0000  0.0000  0.0000 </r>
        <r>  0.0000  0.0188  0.0003  0.0094  0.0000  0.0000  0.0000  0.0000  0.0000 </r>
       </set>
       <set comment="band 16">
        <r>  0.0000  0.0003  0.0383  0.0001  0.0000  0.0000  0.0000  0.0000  0.0000 </r>
        <r>  0.0000  0.0002  0.0283  0.0001  0.0000  0.0000  0.0000  0.0000  0.0000 </r>
       </set>
      </set>
      <set comment="kpoint 16">
       <set comment="band 1">
        <r>  0.0000  0.3293  0.0000  0.6587  0.0000  0.0000  0.0000  0.0000  0.0000 </r>
        <r>  0.0000  0.0001  0.0000  0.0002  0.0000  0.0000  0.0000  0.0000  0.0000 </r>
       </set>
       <set comment="band 2">
        <r>  0.0000  0.6592  0.0000  0.3295  0.0000  0.0000  0.0000  0.0000  0.0000 </r>
        <r>  0.0002  0.0001  0.0000  0.0000  0.0000  0.0000  0.0000  0.0000  0.0000 </r>
       </set>
       <set comment="band 3">
        <r>  0.0000  0.0000  0.9894  0.0000  0.0000  0.0000  0.0000  0.0000  0.0000 </r>
        <r>  0.0000  0.0000  0.0001  0.0000  0.0000  0.0000  0.0000  0.0000  0.0000 </r>
       </set>
       <set comment="band 4">
        <r>  0.0004  0.0005  0.0000  0.0002  0.0000  0.0000  0.0000  0.0000  0.0000 </r>
        <r>  0.7997  0.0000  0.0000  0.0000  0.0000  0.0000  0.0000  0.0000  0.0000 </r>
       </set>
       <set comment="band 5">
        <r>  0.0000  0.0067  0.0000  0.0134  0.0000  0.0000  0.0000  0.0000  0.0000 </r>
        <r>  0.0000  0.1746  0.0000  0.3493  0.0000  0.0000  0.0000  0.0000  0.0000 </r>
       </set>
       <set comment="band 6">
        <r>  0.0061  0.0066  0.0000  0.0033  0.0000  0.0000  0.0000  0.0000  0.0000 </r>
        <r>  0.0000  0.3991  0.0000  0.1995  0.0000  0.0000  0.0000  0.0000  0.0000 </r>
       </set>
       <set comment="band 7">
        <r>  0.0000  0.0000  0.0104  0.0000  0.0000  0.0000  0.0000  0.0000  0.0000 </r>
        <r>  0.0000  0.0000  0.6299  0.0000  0.0000  0.0000  0.0000  0.0000  0.0000 </r>
       </set>
       <set comment="band 8">
        <r>  0.2337  0.0056  0.0000  0.0028  0.0000  0.0000  0.0000  0.0000  0.0000 </r>
        <r>  0.0204  0.0049  0.0000  0.0025  0.0000  0.0000  0.0000  0.0000  0.0000 </r>
       </set>
       <set comment="band 9">
        <r>  0.0252  0.0013  0.0000  0.0006  0.0000  0.0000  0.0000  0.0000  0.0000 </r>
        <r>  0.0003  0.0271  0.0000  0.0135  0.0000  0.0000  0.0000  0.0000  0.0000 </r>
       </set>
       <set comment="band 10">
        <r>  0.0000  0.0218  0.0000  0.0437  0.0000  0.0000  0.0000  0.0000  0.0000 </r>
        <r>  0.0000  0.0917  0.0000  0.1833  0.0000  0.0000  0.0000  0.0000  0.0000 </r>
       </set>
       <set comment="band 11">
        <r>  0.0000  0.0000  0.1425  0.0000  0.0000  0.0000  0.0000  0.0000  0.0000 </r>
        <r>  0.0000  0.0000  0.0813  0.0000  0.0000  0.0000  0.0000  0.0000  0.0000 </r>
       </set>
       <set comment="band 12">
        <r>  0.0170  0.0939  0.0000  0.0469  0.0000  0.0000  0.0000  0.0000  0.0000 </r>
        <r>  0.0413  0.0692  0.0000  0.0346  0.0000  0.0000  0.0000  0.0000  0.0000 </r>
       </set>
       <set comment="band 13">
        <r>  0.0000  0.0000  0.0000  0.0000  0.0000  0.0000  0.0000  0.0000  0.0000 </r>
        <r>  0.0000  0.0000  0.0000  0.0000  0.0000  0.0000  0.0000  0.0000  0.0000 </r>
       </set>
       <set comment="band 14">
        <r>  0.0000  0.0000  0.0471  0.0000  0.0000  0.0000  0.0000  0.0000  0.0000 </r>
        <r>  0.0000  0.0000  0.0904  0.0000  0.0000  0.0000  0.0000  0.0000  0.0000 </r>
       </set>
       <set comment="band 15">
        <r>  0.0000  0.0071  0.0000  0.0142  0.0000  0.0000  0.0000  0.0000  0.0000 </r>
        <r>  0.0000  0.0090  0.0000  0.0181  0.0000  0.0000  0.0000  0.0000  0.0000 </r>
       </set>
       <set comment="band 16">
        <r>  0.0001  0.0225  0.0000  0.0112  0.0000  0.0000  0.0000  0.0000  0.0000 </r>
        <r>  0.0880  0.0361  0.0000  0.0181  0.0000  0.0000  0.0000  0.0000  0.0000 </r>
       </set>
      </set>
      <set comment="kpoint 17">
       <set comment="band 1">
        <r>  0.0000  0.0276  0.1493  0.8106  0.0000  0.0000  0.0000  0.0000  0.0000 </r>
        <r>  0.0008  0.0000  0.0000  0.0000  0.0000  0.0000  0.0000  0.0000  0.0000 </r>
       </set>
       <set comment="band 2">
        <r>  0.0000  0.3284  0.4947  0.1662  0.0000  0.0000  0.0000  0.0000  0.0000 </r>
        <r>  0.0000  0.0001  0.0001  0.0000  0.0000  0.0000  0.0000  0.0000  0.0000 </r>
       </set>
       <set comment="band 3">
        <r>  0.0000  0.6336  0.3452  0.0111  0.0000  0.0000  0.0000  0.0000  0.0000 </r>
        <r>  0.0000  0.0000  0.0000  0.0000  0.0000  0.0000  0.0000  0.0000  0.0000 </r>
       </set>
       <set comment="band 4">
        <r>  0.0013  0.0000  0.0006  0.0026  0.0000  0.0000  0.0000  0.0000  0.0000 </r>
        <r>  0.7859  0.0000  0.0000  0.0001  0.0000  0.0000  0.0000  0.0000  0.0000 </r>
       </set>
       <set comment="band 5">
        <r>  0.0209  0.0018  0.0002  0.0012  0.0000  0.0000  0.0000  0.0000  0.0000 </r>
        <r>  0.0060  0.0246  0.0657  0.4430  0.0000  0.0000  0.0000  0.0000  0.0000 </r>
       </set>
       <set comment="band 6">
        <r>  0.0000  0.0037  0.0055  0.0018  0.0000  0.0000  0.0000  0.0000  0.0000 </r>
        <r>  0.0000  0.2069  0.3103  0.1034  0.0000  0.0000  0.0000  0.0000  0.0000 </r>
       </set>
       <set comment="band 7">
        <r>  0.0006  0.0001  0.0011  0.0022  0.0000  0.0000  0.0000  0.0000  0.0000 </r>
        <r>  0.0001  0.4055  0.2469  0.0016  0.0000  0.0000  0.0000  0.0000  0.0000 </r>
       </set>
       <set comment="band 8">
        <r>  0.1265  0.0005  0.0077  0.0144  0.0000  0.0000  0.0000  0.0000  0.0000 </r>
        <r>  0.0707  0.0094  0.0139  0.1167  0.0000  0.0000  0.0000  0.0000  0.0000 </r>
       </set>
       <set comment="band 9">
        <r>  0.0000  0.0044  0.0066  0.0022  0.0000  0.0000  0.0000  0.0000  0.0000 </r>
        <r>  0.0000  0.0185  0.0277  0.0092  0.0000  0.0000  0.0000  0.0000  0.0000 </r>
       </set>
       <set comment="band 10">
        <r>  0.0879  0.0158  0.0024  0.0688  0.0000  0.0000  0.0000  0.0000  0.0000 </r>
        <r>  0.0035  0.0178  0.0102  0.0002  0.0000  0.0000  0.0000  0.0000  0.0000 </r>
       </set>
       <set comment="band 11">
        <r>  0.0063  0.0767  0.0492  0.0001  0.0000  0.0000  0.0000  0.0000  0.0000 </r>
        <r>  0.0000  0.0014  0.0084  0.0451  0.0000  0.0000  0.0000  0.0000  0.0000 </r>
       </set>
       <set comment="band 12">
        <r>  0.0000  0.0131  0.0196  0.0065  0.0000  0.0000  0.0000  0.0000  0.0000 </r>
        <r>  0.0000  0.0136  0.0204  0.0068  0.0000  0.0000  0.0000  0.0000  0.0000 </r>
       </set>
       <set comment="band 13">
        <r>  0.0008  0.0003  0.0000  0.0003  0.0000  0.0000  0.0000  0.0000  0.0000 </r>
        <r>  0.0008  0.0010  0.0189  0.0373  0.0000  0.0000  0.0000  0.0000  0.0000 </r>
       </set>
       <set comment="band 14">
        <r>  0.0024  0.0001  0.0123  0.0315  0.0000  0.0000  0.0000  0.0000  0.0000 </r>
        <r>  0.0391  0.0001  0.0086  0.0224  0.0000  0.0000  0.0000  0.0000  0.0000 </r>
       </set>
       <set comment="band 15">
        <r>  0.0000  0.0774  0.1161  0.0387  0.0000  0.0000  0.0000  0.0000  0.0000 </r>
        <r>  0.0000  0.0116  0.0175  0.0058  0.0000  0.0000  0.0000  0.0000  0.0000 </r>
       </set>
       <set comment="band 16">
        <r>  0.1618  0.0207  0.0178  0.0008  0.0000  0.0000  0.0000  0.0000  0.0000 </r>
        <r>  0.0020  0.0001  0.0003  0.0021  0.0000  0.0000  0.0000  0.0000  0.0000 </r>
       </set>
      </set>
      <set comment="kpoint 18">
       <set comment="band 1">
        <r>  0.0000  0.0293  0.0120  0.9458  0.0000  0.0000  0.0000  0.0000  0.0000 </r>
        <r>  0.0008  0.0001  0.0000  0.0000  0.0000  0.0000  0.0000  0.0000  0.0000 </r>
       </set>
       <set comment="band 2">
        <r>  0.0000  0.5503  0.4356  0.0032  0.0000  0.0000  0.0000  0.0000  0.0000 </r>
        <r>  0.0000  0.0000  0.0001  0.0001  0.0000  0.0000  0.0000  0.0000  0.0000 </r>
       </set>
       <set comment="band 3">
        <r>  0.0000  0.4096  0.5417  0.0383  0.0000  0.0000  0.0000  0.0000  0.0000 </r>
        <r>  0.0000  0.0000  0.0000  0.0000  0.0000  0.0000  0.0000  0.0000  0.0000 </r>
       </set>
       <set comment="band 4">
        <r>  0.0002  0.0003  0.0003  0.0030  0.0000  0.0000  0.0000  0.0000  0.0000 </r>
        <r>  0.7949  0.0000  0.0000  0.0000  0.0000  0.0000  0.0000  0.0000  0.0000 </r>
       </set>
       <set comment="band 5">
        <r>  0.0203  0.0043  0.0006  0.0011  0.0000  0.0000  0.0000  0.0000  0.0000 </r>
        <r>  0.0010  0.0072  0.0035  0.5119  0.0000  0.0000  0.0000  0.0000  0.0000 </r>
       </set>
       <set comment="band 6">
        <r>  0.0000  0.0009  0.0044  0.0063  0.0000  0.0000  0.0000  0.0000  0.0000 </r>
        <r>  0.0006  0.3668  0.2255  0.0010  0.0000  0.0000  0.0000  0.0000  0.0000 </r>
       </set>
       <set comment="band 7">
        <r>  0.0022  0.0012  0.0011  0.0011  0.0000  0.0000  0.0000  0.0000  0.0000 </r>
        <r>  0.0000  0.2357  0.3935  0.0121  0.0000  0.0000  0.0000  0.0000  0.0000 </r>
       </set>
       <set comment="band 8">
        <r>  0.0369  0.0104  0.0012  0.0388  0.0000  0.0000  0.0000  0.0000  0.0000 </r>
        <r>  0.0411  0.0261  0.0272  0.0393  0.0000  0.0000  0.0000  0.0000  0.0000 </r>
       </set>
       <set comment="band 9">
        <r>  0.2059  0.0055  0.0009  0.0181  0.0000  0.0000  0.0000  0.0000  0.0000 </r>
        <r>  0.0001  0.0446  0.0046  0.0452  0.0000  0.0000  0.0000  0.0000  0.0000 </r>
       </set>
       <set comment="band 10">
        <r>  0.0003  0.0148  0.0165  0.0077  0.0000  0.0000  0.0000  0.0000  0.0000 </r>
        <r>  0.0048  0.0048  0.0162  0.1038  0.0000  0.0000  0.0000  0.0000  0.0000 </r>
       </set>
       <set comment="band 11">
        <r>  0.0033  0.0494  0.0907  0.0017  0.0000  0.0000  0.0000  0.0000  0.0000 </r>
        <r>  0.0022  0.0156  0.0114  0.0253  0.0000  0.0000  0.0000  0.0000  0.0000 </r>
       </set>
       <set comment="band 12">
        <r>  0.0041  0.0312  0.0026  0.0139  0.0000  0.0000  0.0000  0.0000  0.0000 </r>
        <r>  0.0170  0.0014  0.0041  0.0340  0.0000  0.0000  0.0000  0.0000  0.0000 </r>
       </set>
       <set comment="band 13">
        <r>  0.0033  0.0196  0.0093  0.0252  0.0000  0.0000  0.0000  0.0000  0.0000 </r>
        <r>  0.0336  0.0002  0.0218  0.0049  0.0000  0.0000  0.0000  0.0000  0.0000 </r>
       </set>
       <set comment="band 14">
        <r>  0.0154  0.0154  0.0161  0.0000  0.0000  0.0000  0.0000  0.0000  0.0000 </r>
        <r>  0.0087  0.0000  0.0022  0.0413  0.0000  0.0000  0.0000  0.0000  0.0000 </r>
       </set>
       <set comment="band 15">
        <r>  0.0509  0.0358  0.0248  0.0089  0.0000  0.0000  0.0000  0.0000  0.0000 </r>
        <r>  0.0023  0.0021  0.0296  0.0027  0.0000  0.0000  0.0000  0.0000  0.0000 </r>
       </set>
       <set comment="band 16">
        <r>  0.0454  0.0041  0.0035  0.0084  0.0000  0.0000  0.0000  0.0000  0.0000 </r>
        <r>  0.0030  0.0001  0.0542  0.0001  0.0000  0.0000  0.0000  0.0000  0.0000 </r>
       </set>
      </set>
      <set comment="kpoint 19">
       <set comment="band 1">
        <r>  0.0000  0.1283  0.0524  0.8072  0.0000  0.0000  0.0000  0.0000  0.0000 </r>
        <r>  0.0002  0.0001  0.0000  0.0001  0.0000  0.0000  0.0000  0.0000  0.0000 </r>
       </set>
       <set comment="band 2">
        <r>  0.0000  0.3242  0.4993  0.1657  0.0000  0.0000  0.0000  0.0000  0.0000 </r>
        <r>  0.0000  0.0001  0.0001  0.0000  0.0000  0.0000  0.0000  0.0000  0.0000 </r>
       </set>
       <set comment="band 3">
        <r>  0.0000  0.5366  0.4373  0.0152  0.0000  0.0000  0.0000  0.0000  0.0000 </r>
        <r>  0.0002  0.0000  0.0000  0.0001  0.0000  0.0000  0.0000  0.0000  0.0000 </r>
       </set>
       <set comment="band 4">
        <r>  0.0003  0.0001  0.0006  0.0009  0.0000  0.0000  0.0000  0.0000  0.0000 </r>
        <r>  0.7982  0.0000  0.0000  0.0000  0.0000  0.0000  0.0000  0.0000  0.0000 </r>
       </set>
       <set comment="band 5">
        <r>  0.0048  0.0063  0.0001  0.0095  0.0000  0.0000  0.0000  0.0000  0.0000 </r>
        <r>  0.0009  0.0987  0.0135  0.4171  0.0000  0.0000  0.0000  0.0000  0.0000 </r>
       </set>
       <set comment="band 6">
        <r>  0.0000  0.0045  0.0068  0.0023  0.0000  0.0000  0.0000  0.0000  0.0000 </r>
        <r>  0.0000  0.1997  0.2996  0.0999  0.0000  0.0000  0.0000  0.0000  0.0000 </r>
       </set>
       <set comment="band 7">
        <r>  0.0074  0.0003  0.0021  0.0028  0.0000  0.0000  0.0000  0.0000  0.0000 </r>
        <r>  0.0000  0.2972  0.2933  0.0279  0.0000  0.0000  0.0000  0.0000  0.0000 </r>
       </set>
       <set comment="band 8">
        <r>  0.2449  0.0046  0.0043  0.0003  0.0000  0.0000  0.0000  0.0000  0.0000 </r>
        <r>  0.0200  0.0017  0.0189  0.0327  0.0000  0.0000  0.0000  0.0000  0.0000 </r>
       </set>
       <set comment="band 9">
        <r>  0.0000  0.0029  0.0043  0.0014  0.0000  0.0000  0.0000  0.0000  0.0000 </r>
        <r>  0.0000  0.0183  0.0274  0.0092  0.0000  0.0000  0.0000  0.0000  0.0000 </r>
       </set>
       <set comment="band 10">
        <r>  0.0074  0.0070  0.0044  0.0546  0.0000  0.0000  0.0000  0.0000  0.0000 </r>
        <r>  0.0120  0.0789  0.0018  0.1048  0.0000  0.0000  0.0000  0.0000  0.0000 </r>
       </set>
       <set comment="band 11">
        <r>  0.0121  0.0673  0.0651  0.0056  0.0000  0.0000  0.0000  0.0000  0.0000 </r>
        <r>  0.0150  0.0001  0.0227  0.0614  0.0000  0.0000  0.0000  0.0000  0.0000 </r>
       </set>
       <set comment="band 12">
        <r>  0.0000  0.0418  0.0627  0.0209  0.0000  0.0000  0.0000  0.0000  0.0000 </r>
        <r>  0.0000  0.0391  0.0586  0.0195  0.0000  0.0000  0.0000  0.0000  0.0000 </r>
       </set>
       <set comment="band 13">
        <r>  0.0029  0.0015  0.0014  0.0143  0.0000  0.0000  0.0000  0.0000  0.0000 </r>
        <r>  0.0540  0.0041  0.0053  0.0012  0.0000  0.0000  0.0000  0.0000  0.0000 </r>
       </set>
       <set comment="band 14">
        <r>  0.0041  0.0103  0.0002  0.0138  0.0000  0.0000  0.0000  0.0000  0.0000 </r>
        <r>  0.0009  0.0021  0.0062  0.0408  0.0000  0.0000  0.0000  0.0000  0.0000 </r>
       </set>
       <set comment="band 15">
        <r>  0.0000  0.0151  0.0227  0.0076  0.0000  0.0000  0.0000  0.0000  0.0000 </r>
        <r>  0.0000  0.0111  0.0166  0.0055  0.0000  0.0000  0.0000  0.0000  0.0000 </r>
       </set>
       <set comment="band 16">
        <r>  0.0021  0.0035  0.0118  0.0110  0.0000  0.0000  0.0000  0.0000  0.0000 </r>
        <r>  0.0395  0.0618  0.0417  0.0000  0.0000  0.0000  0.0000  0.0000  0.0000 </r>
       </set>
      </set>
      <set comment="kpoint 20">
       <set comment="band 1">
        <r>  0.0000  0.6431  0.0312  0.3139  0.0000  0.0000  0.0000  0.0000  0.0000 </r>
        <r>  0.0004  0.0001  0.0000  0.0000  0.0000  0.0000  0.0000  0.0000  0.0000 </r>
       </set>
       <set comment="band 2">
        <r>  0.0000  0.3240  0.0000  0.6645  0.0000  0.0000  0.0000  0.0000  0.0000 </r>
        <r>  0.0000  0.0001  0.0000  0.0002  0.0000  0.0000  0.0000  0.0000  0.0000 </r>
       </set>
       <set comment="band 3">
        <r>  0.0000  0.0212  0.9581  0.0100  0.0000  0.0000  0.0000  0.0000  0.0000 </r>
        <r>  0.0001  0.0000  0.0000  0.0000  0.0000  0.0000  0.0000  0.0000  0.0000 </r>
       </set>
       <set comment="band 4">
        <r>  0.0000  0.0013  0.0003  0.0007  0.0000  0.0000  0.0000  0.0000  0.0000 </r>
        <r>  0.7994  0.0000  0.0000  0.0000  0.0000  0.0000  0.0000  0.0000  0.0000 </r>
       </set>
       <set comment="band 5">
        <r>  0.0000  0.0058  0.0000  0.0116  0.0000  0.0000  0.0000  0.0000  0.0000 </r>
        <r>  0.0000  0.1838  0.0000  0.3676  0.0000  0.0000  0.0000  0.0000  0.0000 </r>
       </set>
       <set comment="band 6">
        <r>  0.0105  0.0042  0.0035  0.0021  0.0000  0.0000  0.0000  0.0000  0.0000 </r>
        <r>  0.0002  0.3465  0.0370  0.1733  0.0000  0.0000  0.0000  0.0000  0.0000 </r>
       </set>
       <set comment="band 7">
        <r>  0.0066  0.0005  0.0034  0.0002  0.0000  0.0000  0.0000  0.0000  0.0000 </r>
        <r>  0.0000  0.0273  0.5799  0.0137  0.0000  0.0000  0.0000  0.0000  0.0000 </r>
       </set>
       <set comment="band 8">
        <r>  0.2037  0.0132  0.0002  0.0066  0.0000  0.0000  0.0000  0.0000  0.0000 </r>
        <r>  0.0073  0.0086  0.0361  0.0043  0.0000  0.0000  0.0000  0.0000  0.0000 </r>
       </set>
       <set comment="band 9">
        <r>  0.0605  0.0122  0.0002  0.0061  0.0000  0.0000  0.0000  0.0000  0.0000 </r>
        <r>  0.0061  0.0889  0.0072  0.0444  0.0000  0.0000  0.0000  0.0000  0.0000 </r>
       </set>
       <set comment="band 10">
        <r>  0.0000  0.0122  0.0000  0.0244  0.0000  0.0000  0.0000  0.0000  0.0000 </r>
        <r>  0.0000  0.0588  0.0000  0.1175  0.0000  0.0000  0.0000  0.0000  0.0000 </r>
       </set>
       <set comment="band 11">
        <r>  0.0020  0.0286  0.1038  0.0143  0.0000  0.0000  0.0000  0.0000  0.0000 </r>
        <r>  0.0350  0.0009  0.0199  0.0004  0.0000  0.0000  0.0000  0.0000  0.0000 </r>
       </set>
       <set comment="band 12">
        <r>  0.0041  0.0316  0.0475  0.0158  0.0000  0.0000  0.0000  0.0000  0.0000 </r>
        <r>  0.0355  0.0174  0.0255  0.0087  0.0000  0.0000  0.0000  0.0000  0.0000 </r>
       </set>
       <set comment="band 13">
        <r>  0.0000  0.0157  0.0000  0.0314  0.0000  0.0000  0.0000  0.0000  0.0000 </r>
        <r>  0.0000  0.0160  0.0000  0.0321  0.0000  0.0000  0.0000  0.0000  0.0000 </r>
       </set>
       <set comment="band 14">
        <r>  0.0015  0.0149  0.0113  0.0074  0.0000  0.0000  0.0000  0.0000  0.0000 </r>
        <r>  0.0367  0.0246  0.0319  0.0123  0.0000  0.0000  0.0000  0.0000  0.0000 </r>
       </set>
       <set comment="band 15">
        <r>  0.0000  0.0175  0.0000  0.0351  0.0000  0.0000  0.0000  0.0000  0.0000 </r>
        <r>  0.0000  0.0152  0.0000  0.0304  0.0000  0.0000  0.0000  0.0000  0.0000 </r>
       </set>
       <set comment="band 16">
        <r>  0.0303  0.0012  0.0034  0.0006  0.0000  0.0000  0.0000  0.0000  0.0000 </r>
        <r>  0.0018  0.0330  0.0749  0.0165  0.0000  0.0000  0.0000  0.0000  0.0000 </r>
       </set>
      </set>
     </set>
    </set>
   </array>
  </projected>
 </calculation>
 <structure name="finalpos" >
  <crystal>
   <varray name="basis" >
    <v>       3.45976223      -0.00000000       1.99749523 </v>
    <v>       1.15325408       3.26189553       1.99749523 </v>
    <v>      -0.00000000      -0.00000000       3.99498948 </v>
   </varray>
   <i name="volume">     45.08498624 </i>
   <varray name="rec_basis" >
    <v>       0.28903720      -0.10219007       0.00000000 </v>
    <v>       0.00000000       0.30657021       0.00000000 </v>
    <v>      -0.14451864      -0.10219010       0.25031355 </v>
   </varray>
  </crystal>
  <varray name="positions" >
   <v>       0.00000000       0.00000000       0.00000000 </v>
   <v>       0.50000000       0.50000000       0.50000000 </v>
  </varray>
 </structure>
</modeling>
