unknown system                          
           1
     3.459762   -0.000000    1.997495
     1.153254    3.261896    1.997495
    -0.000000   -0.000000    3.994989
   Na   Cl
     1     1
Direct configuration=     1
   0.00000000  0.00000000  0.00000000
   0.50000000  0.50000000  0.50000000
