/*--------------------------------*- C++ -*----------------------------------*\
| =========                 |                                                 |
| \\      /  F ield         | OpenFOAM: The Open Source CFD Toolbox           |
|  \\    /   O peration     | Version:  v2012                                 |
|   \\  /    A nd           | Website:  www.openfoam.com                      |
|    \\/     M anipulation  |                                                 |
\*---------------------------------------------------------------------------*/
FoamFile
{
    version     2.0;
    format      ascii;
    class       volScalarField;
    location    "0.4";
    object      p;
}
// * * * * * * * * * * * * * * * * * * * * * * * * * * * * * * * * * * * * * //

dimensions      [0 2 -2 0 0 0 0];


internalField   nonuniform List<scalar> 
1250
(
0.0372151
0.0438313
0.0503296
0.0566201
0.0626143
0.0682263
0.0733741
0.0779814
0.0819789
0.0853063
0.0879137
0.0897642
0.0908356
0.0911225
0.0906392
0.0894222
0.0875333
0.0850635
0.0821379
0.0789213
0.0756247
0.0725119
0.0699103
0.0682268
0.067719
0.0369159
0.0428936
0.0487642
0.054447
0.0598627
0.0649347
0.0695905
0.073763
0.0773918
0.0804251
0.0828213
0.0845507
0.0855972
0.0859607
0.0856586
0.0847283
0.0832297
0.0812476
0.0788943
0.0763129
0.0736789
0.0711995
0.0691142
0.0677151
0.0672116
0.036677
0.0421786
0.0475821
0.0528137
0.0578011
0.0624744
0.066768
0.0706212
0.0739799
0.0767981
0.0790394
0.0806784
0.0817027
0.0821141
0.0819304
0.0811875
0.0799404
0.0782654
0.0762611
0.0740492
0.0717744
0.0696026
0.0677181
0.066313
0.0655315
0.0364729
0.0416143
0.0466655
0.0515577
0.056224
0.0605996
0.0646235
0.0682396
0.0713981
0.0740568
0.0761821
0.0777511
0.0787526
0.0791883
0.0790747
0.0784436
0.077344
0.0758422
0.0740226
0.0719873
0.0698544
0.0677593
0.065847
0.0642119
0.0629154
0.0362737
0.0411174
0.0458781
0.0504916
0.054895
0.0590276
0.0628321
0.066256
0.0692523
0.0717813
0.0738114
0.0753205
0.0762974
0.0767427
0.0766699
0.0761062
0.0750933
0.0736873
0.0719589
0.0699913
0.067879
0.0657323
0.0636646
0.0616725
0.0597293
0.036071
0.0406777
0.0452083
0.0496019
0.0537989
0.0577417
0.0613758
0.0646509
0.0675221
0.069951
0.0719065
0.0733667
0.0743192
0.0747625
0.0747063
0.0741725
0.0731952
0.0718207
0.0701067
0.0681196
0.0659335
0.063639
0.061325
0.0588973
0.0562497
0.0358558
0.0402861
0.0446465
0.0488788
0.0529258
0.0567319
0.0602445
0.0634147
0.0661983
0.0685573
0.0704606
0.071885
0.0728162
0.0732496
0.073191
0.0726563
0.0716725
0.0702763
0.0685138
0.0664371
0.0641035
0.0615887
0.058964
0.0560548
0.0526867
0.0356163
0.0399276
0.0441749
0.0483018
0.0522525
0.0559729
0.0594111
0.0625188
0.0652518
0.0675717
0.069446
0.0708498
0.0717661
0.072187
0.0721133
0.0715555
0.0705333
0.069075
0.0672165
0.0649978
0.0624629
0.0596767
0.056699
0.0532842
0.0492002
0.03534
0.0395875
0.0437764
0.0478515
0.051758
0.0554421
0.0588521
0.0619394
0.0646591
0.0669712
0.0688417
0.070243
0.0711549
0.0715655
0.0714708
0.0708757
0.0697931
0.0682436
0.0662545
0.063856
0.0610812
0.0579887
0.0546306
0.0506992
0.045912
0.0350134
0.0392507
0.0434347
0.0475108
0.0514242
0.055121
0.0585491
0.0616585
0.0644031
0.0667409
0.0686352
0.0700554
0.0709776
0.0713855
0.0712702
0.070631
0.0694744
0.0678144
0.0656708
0.0630658
0.0600245
0.0566015
0.0528454
0.0483926
0.0429159
0.0346219
0.0389019
0.0431339
0.0472631
0.0512345
0.0549934
0.0584863
0.0616617
0.0644713
0.0668704
0.0688192
0.0702835
0.0712352
0.0716534
0.0715241
0.0708409
0.0696047
0.0678232
0.06551
0.0626808
0.0593548
0.0555849
0.051419
0.046442
0.0402859
0.0341497
0.0385249
0.0428576
0.0470924
0.0511733
0.0550444
0.0586503
0.0619373
0.0648542
0.0673533
0.0693909
0.0709286
0.0719339
0.0723807
0.07225
0.0715297
0.0702152
0.0683086
0.0658181
0.0627542
0.0591317
0.0550036
0.0504192
0.0449148
0.0380838
0.0335796
0.0381026
0.0425891
0.0469826
0.0512256
0.0552604
0.0590293
0.0624757
0.0655453
0.0681863
0.0703509
0.071996
0.073084
0.0735835
0.07347
0.0727258
0.0713409
0.0693121
0.0666429
0.0633396
0.0594135
0.0549194
0.0499089
0.0438719
0.0363639
0.032893
0.0376171
0.0423113
0.0469176
0.0513768
0.0556287
0.0596129
0.0632696
0.0665404
0.0693692
0.0717035
0.0734949
0.0747001
0.0752821
0.0752103
0.0744617
0.0730204
0.0708783
0.0680346
0.0644919
0.0602589
0.0553929
0.0499493
0.0433713
0.0351771
0.0320698
0.0370492
0.0420061
0.0468809
0.0516121
0.0561369
0.0603916
0.0643125
0.067837
0.070904
0.0734556
0.0754373
0.0768001
0.0775003
0.0775014
0.0767739
0.0752964
0.0730557
0.0700468
0.0662689
0.0617285
0.0564862
0.0506018
0.0434712
0.0345745
0.0310885
0.0363784
0.0416546
0.0468553
0.0519167
0.0567728
0.0613563
0.0655993
0.0694342
0.0727945
0.0756162
0.0778384
0.0794051
0.0802659
0.0803772
0.079703
0.0782157
0.0758968
0.072737
0.0687319
0.0638863
0.0582644
0.0519306
0.0442323
0.0346098
0.0299263
0.0355835
0.041237
0.0468231
0.0522752
0.057524
0.0624982
0.0671253
0.0713321
0.0750461
0.0781965
0.0807155
0.0825393
0.0836099
0.0838759
0.083294
0.0818298
0.0794591
0.0761677
0.0719475
0.0668013
0.0607972
0.0540047
0.0457199
0.0353421
0.0285593
0.0346418
0.0407326
0.0467657
0.0526717
0.0583779
0.0638085
0.0688859
0.0735312
0.0776652
0.0812096
0.0840885
0.0862299
0.0875669
0.0880398
0.0875967
0.0861958
0.0838059
0.0804075
0.0759885
0.0705492
0.0641615
0.0568999
0.0480067
0.0368374
0.0269629
0.0335303
0.0401201
0.0466641
0.05309
0.0593213
0.0652781
0.0708771
0.076033
0.0806593
0.0846696
0.0879793
0.0905066
0.0921753
0.0929154
0.092666
0.0913761
0.0890069
0.0855325
0.0809357
0.0752137
0.0684422
0.0607008
0.0511739
0.0391708
0.0251124
0.0322257
0.0393778
0.0464986
0.0535131
0.0603411
0.0668979
0.0730945
0.0788389
0.0840367
0.0885925
0.0924117
0.0954023
0.0974768
0.0985542
0.0985623
0.0974402
0.0951396
0.0916269
0.0868788
0.0808885
0.073735
0.0655027
0.0553141
0.0424289
0.0229836
0.0307047
0.0384841
0.0462499
0.0539243
0.0614236
0.0686584
0.0755339
0.0819508
0.0878062
0.092995
0.0974117
0.100952
0.103517
0.105012
0.105352
0.104465
0.10229
0.0987851
0.0939188
0.0876792
0.080148
0.071414
0.0605328
0.0467112
0.0205537
0.0289457
0.0374185
0.0458989
0.0543069
0.0625554
0.0705504
0.0781911
0.0853707
0.0919772
0.0978951
0.103007
0.107195
0.110346
0.112351
0.113109
0.112535
0.110554
0.107112
0.102169
0.095705
0.0878037
0.0785582
0.0669511
0.0521327
0.0178028
0.0269289
0.0361619
0.045428
0.0546452
0.0637236
0.0725647
0.0810618
0.0891006
0.0965595
0.103312
0.109226
0.114172
0.118017
0.120637
0.121914
0.121744
0.120038
0.116727
0.111758
0.105101
0.0968421
0.0870766
0.0747081
0.0588262
0.0147148
0.0246381
0.0346983
0.0448215
0.0549249
0.064916
0.0746927
0.0841424
0.0931431
0.101564
0.109265
0.116101
0.121925
0.126588
0.129944
0.131856
0.132198
0.130863
0.127763
0.122829
0.116022
0.107423
0.0971315
0.0839642
0.0669453
0.0112796
0.0220622
0.0330158
0.0440674
0.0551343
0.0661226
0.0769269
0.0874296
0.097501
0.107
0.115774
0.123664
0.130502
0.136121
0.14035
0.14303
0.144011
0.14316
0.140369
0.135548
0.128642
0.11973
0.10891
0.0949043
0.0766674
0.00749429
0.0191964
0.0311079
0.0431581
0.0552654
0.0673358
0.0792617
0.0909211
0.102177
0.112879
0.122862
0.131948
0.139952
0.146681
0.151942
0.155545
0.157311
0.15708
0.154715
0.150102
0.143164
0.133973
0.122627
0.107743
0.0881981
0.00336591
0.0160447
0.0289755
0.0420918
0.0553147
0.0685514
0.0816936
0.094616
0.107176
0.119213
0.130548
0.140987
0.150324
0.158339
0.164809
0.169514
0.172239
0.172789
0.170992
0.166703
0.159817
0.150397
0.138533
0.122727
0.101776
-0.00108677
0.0126213
0.0266287
0.0408745
0.0552847
0.0697696
0.0842219
0.0985148
0.112501
0.12601
0.138853
0.150816
0.161669
0.171166
0.17905
0.185064
0.18895
0.190472
0.189415
0.185593
0.178868
0.169282
0.156918
0.140148
0.117677
-0.00583099
0.00895302
0.0240879
0.0395209
0.055185
0.0709958
0.0868495
0.10262
0.118156
0.133283
0.147796
0.161466
0.174038
0.185237
0.194767
0.202327
0.207614
0.210336
0.210228
0.207051
0.200622
0.190957
0.178122
0.160343
0.136227
-0.0108181
0.00508074
0.0213861
0.038056
0.0550331
0.0722412
0.0895826
0.106935
0.124146
0.141037
0.157393
0.172967
0.187481
0.200625
0.212064
0.221447
0.228414
0.23261
0.233704
0.231394
0.225434
0.215805
0.202544
0.18371
0.157804
-0.0159816
0.00106094
0.0185696
0.0365158
0.0548552
0.073523
0.0924311
0.111464
0.130473
0.149277
0.167654
0.185342
0.202038
0.2174
0.231048
0.242573
0.251549
0.257548
0.260156
0.258987
0.253719
0.244275
0.230656
0.210724
0.182858
-0.0212367
-0.00303367
0.0156983
0.0349477
0.054686
0.0748641
0.0954073
0.116211
0.137136
0.158001
0.178581
0.198605
0.217745
0.235625
0.251819
0.265855
0.27723
0.285426
0.28993
0.290249
0.285957
0.276901
0.263021
0.241948
0.211924
-0.0264799
-0.00711432
0.012846
0.0334095
0.0545679
0.0762917
0.0985245
0.121178
0.144126
0.167196
0.190165
0.212754
0.234618
0.255348
0.274468
0.291441
0.305676
0.316547
0.323419
0.325663
0.322716
0.314318
0.300318
0.278067
0.245647
-0.0315904
-0.0110776
0.0100977
0.031968
0.0545489
0.0778351
0.101794
0.12636
0.151425
0.176835
0.202375
0.227764
0.252649
0.276591
0.299068
0.319469
0.337106
0.351231
0.361055
0.36578
0.364663
0.357287
0.343371
0.319915
0.28481
-0.036433
-0.0148087
0.00754741
0.0306951
0.0546786
0.0795216
0.105221
0.13174
0.159
0.186869
0.215152
0.24358
0.271796
0.299342
0.325653
0.350047
0.37173
0.389809
0.403316
0.411235
0.412584
0.406731
0.393196
0.36853
0.330382
-0.0408627
-0.018186
0.00529232
0.0296632
0.0550033
0.0813707
0.108798
0.137285
0.16679
0.197216
0.228401
0.260099
0.291964
0.323533
0.354207
0.383239
0.409725
0.432612
0.450715
0.462747
0.467413
0.463775
0.451057
0.425214
0.383579
-0.0447321
-0.0210885
0.00342627
0.0289376
0.0555587
0.0833869
0.112497
0.142934
0.174702
0.207754
0.241973
0.277156
0.312986
0.349016
0.384631
0.419033
0.451211
0.47994
0.503787
0.521126
0.530252
0.5298
0.518551
0.491641
0.445959
-0.0479003
-0.0234048
0.00203048
0.0285678
0.0563609
0.0855506
0.11626
0.148588
0.182598
0.218302
0.255651
0.294502
0.334599
0.375533
0.416708
0.457297
0.496202
0.532026
0.563055
0.587259
0.602399
0.606514
0.597725
0.569997
0.51956
-0.0502442
-0.0250438
0.00116304
0.0285775
0.0573961
0.0878078
0.11999
0.154103
0.190278
0.228609
0.269128
0.311784
0.35641
0.402678
0.450052
0.497722
0.544541
0.588961
0.628976
0.662082
0.685363
0.696036
0.691236
0.663208
0.607131
-0.051671
-0.0259469
0.000847264
0.0289526
0.0586098
0.0900588
0.123536
0.15927
0.197474
0.238334
0.28199
0.328512
0.377862
0.429846
0.484048
0.539744
0.595808
0.650599
0.701841
0.746509
0.780855
0.80099
0.802582
0.775279
0.712498
-0.0521309
-0.0261003
0.0010603
0.0296309
0.0598966
0.0921489
0.126686
0.163812
0.203829
0.247032
0.293694
0.344036
0.398198
0.456182
0.517772
0.582437
0.649183
0.71639
0.781603
0.841286
0.890726
0.924588
0.936411
0.911845
0.841205
-0.0516292
-0.0255453
0.0017235
0.0304935
0.0610919
0.0938609
0.129161
0.167373
0.208897
0.25415
0.303555
0.357523
0.41642
0.480518
0.549909
0.624387
0.703269
0.785156
0.867613
0.946725
1.01678
1.07066
1.09892
1.08102
1.00167
-0.0502359
-0.0243863
0.00269642
0.03136
0.0619695
0.0949135
0.130612
0.169521
0.212142
0.259019
0.310744
0.367946
0.431269
0.501333
0.578661
0.66355
0.755873
0.854773
0.958205
1.06224
1.16037
1.24355
1.29831
1.29476
1.20737
-0.0480897
-0.0227931
0.00377601
0.0319902
0.0622446
0.0949673
0.13063
0.169759
0.212949
0.260874
0.314301
0.374094
0.441218
0.516718
0.601673
0.697093
0.803727
0.921723
1.05005
1.18553
1.32154
1.44747
1.54511
1.57103
1.48127
-0.0453959
-0.0209979
0.00470119
0.0320891
0.0615813
0.0936336
0.128757
0.167536
0.210645
0.258874
0.313157
0.374595
0.444491
0.524366
0.61597
0.721235
0.842153
0.980483
1.13715
1.31103
1.49708
1.68469
1.85151
1.93685
1.86473
-0.0424155
-0.01928
0.00517202
0.0313317
0.0596214
0.0905103
0.124532
0.162305
0.204564
0.252186
0.306241
0.368041
0.439203
0.521732
0.6181
0.731322
0.864984
1.02314
1.2099
1.42827
1.67794
1.95233
2.22902
2.4309
2.43194
-0.0394493
-0.0179302
0.00490586
0.0294401
0.0560871
0.0853111
0.117646
0.153721
0.194291
0.240281
0.292845
0.353437
0.423921
0.50671
0.604952
0.722774
0.865576
1.04032
1.25569
1.52173
1.84815
2.23977
2.68371
3.10337
3.31484
-0.0368162
-0.0172469
0.00362303
0.0261513
0.0507285
0.0777943
0.107858
0.141525
0.179531
0.222789
0.272457
0.330029
0.397472
0.477424
0.573484
0.690658
0.835998
1.01953
1.25553
1.56431
1.97281
2.50869
3.1901
4.01478
4.80843
-0.0347762
-0.0176971
0.000644184
0.0205631
0.0424042
0.066556
0.0934689
0.123679
0.157842
0.196772
0.241513
0.293423
0.354317
0.426675
0.513985
0.621292
0.756117
0.930002
1.16132
1.48062
1.9368
2.59636
3.5721
5.1944
7.6784
-0.0334317
-0.019541
-0.00445088
0.0120911
0.0303592
0.0506607
0.0733493
0.098843
0.127647
0.160387
0.197852
0.241066
0.29138
0.350636
0.421418
0.507501
0.614665
0.75228
0.936874
1.20041
1.60434
2.26055
3.4718
6.35801
12.4032
)
;

boundaryField
{
    movingWall
    {
        type            zeroGradient;
    }
    fixedWalls
    {
        type            zeroGradient;
    }
    frontAndBack
    {
        type            empty;
    }
    procBoundary1to0
    {
        type            processor;
        value           nonuniform List<scalar> 
50
(
0.0305711
0.0309122
0.0311515
0.0313103
0.0314117
0.0314492
0.0314138
0.031297
0.0310886
0.0307768
0.0303478
0.0297862
0.0290749
0.0281948
0.0271252
0.0258435
0.0243258
0.0225471
0.0204815
0.0181031
0.015387
0.0123096
0.0088507
0.00499465
0.000732156
-0.00393756
-0.00900459
-0.014446
-0.0202233
-0.0262806
-0.0325422
-0.0389118
-0.0452719
-0.0514851
-0.0573965
-0.0628385
-0.0676378
-0.0716245
-0.0746432
-0.0765665
-0.0773085
-0.0768382
-0.0751905
-0.0724729
-0.0688641
-0.0646073
-0.0600138
-0.0554239
-0.0508922
-0.0463625
)
;
    }
}


// ************************************************************************* //
