/*--------------------------------*- C++ -*----------------------------------*\
| =========                 |                                                 |
| \\      /  F ield         | OpenFOAM: The Open Source CFD Toolbox           |
|  \\    /   O peration     | Version:  v2012                                 |
|   \\  /    A nd           | Website:  www.openfoam.com                      |
|    \\/     M anipulation  |                                                 |
\*---------------------------------------------------------------------------*/
FoamFile
{
    version     2.0;
    format      ascii;
    class       surfaceScalarField;
    location    "0.4";
    object      phi;
}
// * * * * * * * * * * * * * * * * * * * * * * * * * * * * * * * * * * * * * //

dimensions      [0 3 -1 0 0 0 0];
oriented        oriented;


internalField   nonuniform List<scalar> 
2425
(
-1.40581e-07
-5.49139e-10
-1.38803e-07
-1.77825e-09
-1.35814e-07
-2.98898e-09
-1.3165e-07
-4.16399e-09
-1.26364e-07
-5.28553e-09
-1.20029e-07
-6.33551e-09
-1.12733e-07
-7.29566e-09
-1.04586e-07
-8.14767e-09
-9.57121e-08
-8.87342e-09
-8.62569e-08
-9.45522e-09
-7.63808e-08
-9.87611e-09
-6.62606e-08
-1.01201e-08
-5.60879e-08
-1.01727e-08
-4.60668e-08
-1.00211e-08
-3.64119e-08
-9.65485e-09
-2.73457e-08
-9.06626e-09
-1.90941e-08
-8.25157e-09
-1.18819e-08
-7.21226e-09
-5.9242e-09
-5.95767e-09
-1.41397e-09
-4.51023e-09
1.5021e-09
-2.91608e-09
2.76757e-09
-1.26548e-09
2.49878e-09
2.68787e-10
1.17533e-09
1.32345e-09
1.17533e-09
-3.96564e-07
-2.08639e-09
-3.91682e-07
-6.6599e-09
-3.8351e-07
-1.11613e-08
-3.72148e-07
-1.55258e-08
-3.57746e-07
-1.96873e-08
-3.40503e-07
-2.35789e-08
-3.20665e-07
-2.71333e-08
-2.9853e-07
-3.02835e-08
-2.74439e-07
-3.29637e-08
-2.48784e-07
-3.51104e-08
-2.21997e-07
-3.66631e-08
-1.94551e-07
-3.75662e-08
-1.66954e-07
-3.77699e-08
-1.39743e-07
-3.72326e-08
-1.13475e-07
-3.59227e-08
-8.87192e-08
-3.38217e-08
-6.60425e-08
-3.09283e-08
-4.59903e-08
-2.72645e-08
-2.9062e-08
-2.2886e-08
-1.56733e-08
-1.78989e-08
-6.0986e-09
-1.24908e-08
-3.80703e-10
-6.98338e-09
1.80651e-09
-1.91844e-09
1.33536e-09
1.7946e-09
2.51069e-09
-6.32064e-07
-4.50827e-09
-6.24459e-07
-1.42646e-08
-6.11758e-07
-2.38627e-08
-5.94119e-07
-3.31643e-08
-5.71778e-07
-4.2029e-08
-5.45042e-07
-5.03149e-08
-5.14295e-07
-5.78801e-08
-4.79994e-07
-6.4584e-08
-4.42669e-07
-7.0289e-08
-4.02916e-07
-7.48631e-08
-3.61397e-07
-7.81822e-08
-3.1883e-07
-8.0133e-08
-2.75984e-07
-8.06166e-08
-2.33664e-07
-7.95528e-08
-1.92701e-07
-7.6885e-08
-1.53936e-07
-7.25867e-08
-1.18194e-07
-6.6671e-08
-8.62551e-08
-5.92031e-08
-5.88208e-08
-5.03203e-08
-3.64573e-08
-4.02625e-08
-1.95263e-08
-2.94218e-08
-8.08812e-09
-1.84215e-08
-1.78084e-09
-8.22572e-09
3.30372e-10
-3.16614e-10
2.84106e-09
-8.50831e-07
-7.7166e-09
-8.40825e-07
-2.42707e-08
-8.24136e-07
-4.05518e-08
-8.00974e-07
-5.63261e-08
-7.71646e-07
-7.13567e-08
-7.36556e-07
-8.54052e-08
-6.96203e-07
-9.82334e-08
-6.5118e-07
-1.09606e-07
-6.02174e-07
-1.19295e-07
-5.49955e-07
-1.27082e-07
-4.95375e-07
-1.32762e-07
-4.39355e-07
-1.36152e-07
-3.82878e-07
-1.37094e-07
-3.2697e-07
-1.35462e-07
-2.72681e-07
-1.31174e-07
-2.21067e-07
-1.242e-07
-1.73158e-07
-1.1458e-07
-1.29921e-07
-1.0244e-07
-9.2216e-08
-8.80249e-08
-6.0742e-08
-7.17365e-08
-3.59631e-08
-5.42007e-08
-1.80269e-08
-3.63577e-08
-6.67061e-09
-1.9582e-08
-1.12821e-09
-5.85901e-09
1.71284e-09
-1.05593e-06
-1.16167e-08
-1.0438e-06
-3.64035e-08
-1.02357e-06
-6.07782e-08
-9.95504e-07
-8.43929e-08
-9.59965e-07
-1.06896e-07
-9.17436e-07
-1.27933e-07
-8.68516e-07
-1.47153e-07
-8.13913e-07
-1.6421e-07
-7.54443e-07
-1.78766e-07
-6.91022e-07
-1.90503e-07
-6.2466e-07
-1.99124e-07
-5.56449e-07
-2.04363e-07
-4.87547e-07
-2.05996e-07
-4.19161e-07
-2.03847e-07
-3.52526e-07
-1.97809e-07
-2.88874e-07
-1.87852e-07
-2.29406e-07
-1.74048e-07
-1.7525e-07
-1.56596e-07
-1.27415e-07
-1.3586e-07
-8.67342e-08
-1.12417e-07
-5.38085e-08
-8.71264e-08
-2.8937e-08
-6.12292e-08
-1.20588e-08
-3.64603e-08
-2.70838e-09
-1.52094e-08
-9.9555e-10
-1.25e-06
-1.61156e-08
-1.23597e-06
-5.04268e-08
-1.21258e-06
-8.41671e-08
-1.18012e-06
-1.16859e-07
-1.13899e-06
-1.4802e-07
-1.08976e-06
-1.77167e-07
-1.0331e-06
-2.03818e-07
-9.69804e-07
-2.27501e-07
-9.00811e-07
-2.47759e-07
-8.27154e-07
-2.6416e-07
-7.49976e-07
-2.76302e-07
-6.70511e-07
-2.83829e-07
-5.90064e-07
-2.86442e-07
-5.09998e-07
-2.83913e-07
-4.31703e-07
-2.76104e-07
-3.56569e-07
-2.62987e-07
-2.8595e-07
-2.44667e-07
-2.21126e-07
-2.21421e-07
-1.63254e-07
-1.93732e-07
-1.13325e-07
-1.62346e-07
-7.21073e-08
-1.28344e-07
-4.01058e-08
-9.32306e-08
-1.75267e-08
-5.90394e-08
-4.27359e-09
-2.84626e-08
-5.26914e-09
-1.43528e-06
-2.11199e-08
-1.41958e-06
-6.61345e-08
-1.39334e-06
-1.10404e-07
-1.35689e-06
-1.5331e-07
-1.31068e-06
-1.94225e-07
-1.25533e-06
-2.32523e-07
-1.19157e-06
-2.6758e-07
-1.12028e-06
-2.98788e-07
-1.04248e-06
-3.25555e-07
-9.5932e-07
-3.47324e-07
-8.72042e-07
-3.63579e-07
-7.82004e-07
-3.73866e-07
-6.90644e-07
-3.77803e-07
-5.99456e-07
-3.75101e-07
-5.09973e-07
-3.65588e-07
-4.23728e-07
-3.49231e-07
-3.42225e-07
-3.2617e-07
-2.66895e-07
-2.96751e-07
-1.99059e-07
-2.61568e-07
-1.39882e-07
-2.21523e-07
-9.03344e-08
-1.77891e-07
-5.11628e-08
-1.32402e-07
-2.2877e-08
-8.73252e-08
-5.77007e-09
-4.55695e-08
-1.10392e-08
-1.61369e-06
-2.65338e-08
-1.59648e-06
-8.33424e-08
-1.56767e-06
-1.39223e-07
-1.52757e-06
-1.93402e-07
-1.4767e-06
-2.45099e-07
-1.41569e-06
-2.93534e-07
-1.34534e-06
-3.37932e-07
-1.26659e-06
-3.77533e-07
-1.18054e-06
-4.11603e-07
-1.08842e-06
-4.39449e-07
-9.91565e-07
-4.60432e-07
-8.91446e-07
-4.73985e-07
-7.89611e-07
-4.79637e-07
-6.87683e-07
-4.7703e-07
-5.87322e-07
-4.65948e-07
-4.90205e-07
-4.46348e-07
-3.97984e-07
-4.18391e-07
-3.12252e-07
-3.82482e-07
-2.34506e-07
-3.39314e-07
-1.66107e-07
-2.89923e-07
-1.08251e-07
-2.35747e-07
-6.19525e-08
-1.78701e-07
-2.80389e-08
-1.21239e-07
-7.1854e-09
-6.6423e-08
-1.82246e-08
-1.7868e-06
-3.2257e-08
-1.76826e-06
-1.01881e-07
-1.7371e-06
-1.70388e-07
-1.69366e-06
-2.36843e-07
-1.63845e-06
-3.00303e-07
-1.57216e-06
-3.59824e-07
-1.49563e-06
-4.14468e-07
-1.40984e-06
-4.63318e-07
-1.31596e-06
-5.05485e-07
-1.21528e-06
-5.40129e-07
-1.10924e-06
-5.66476e-07
-9.99382e-07
-5.8384e-07
-8.87375e-07
-5.91644e-07
-7.74953e-07
-5.89451e-07
-6.63909e-07
-5.76992e-07
-5.56059e-07
-5.54198e-07
-4.53212e-07
-5.21239e-07
-3.57133e-07
-4.78561e-07
-2.69509e-07
-4.26938e-07
-1.91917e-07
-3.67515e-07
-1.25798e-07
-3.01865e-07
-7.24457e-08
-2.32053e-07
-3.30095e-08
-1.60675e-07
-8.52672e-09
-9.09057e-08
-2.67513e-08
-1.9559e-06
-3.8183e-08
-1.9362e-06
-1.21589e-07
-1.9029e-06
-2.03688e-07
-1.85636e-06
-2.83377e-07
-1.79712e-06
-3.59545e-07
-1.72587e-06
-4.31074e-07
-1.64348e-06
-4.96858e-07
-1.55099e-06
-5.55808e-07
-1.4496e-06
-6.06873e-07
-1.34068e-06
-6.49055e-07
-1.22572e-06
-6.81434e-07
-1.10637e-06
-7.03187e-07
-9.8439e-07
-7.13625e-07
-8.61628e-07
-7.12213e-07
-7.40008e-07
-6.98613e-07
-6.21491e-07
-6.72715e-07
-5.08051e-07
-6.34679e-07
-4.01635e-07
-5.84977e-07
-3.04138e-07
-5.24435e-07
-2.17367e-07
-4.54286e-07
-1.43022e-07
-3.7621e-07
-8.26848e-08
-2.92391e-07
-3.7821e-08
-2.05539e-07
-9.80947e-09
-1.18917e-07
-3.65608e-08
-2.12202e-06
-4.41972e-08
-2.1013e-06
-1.42305e-07
-2.06607e-06
-2.38922e-07
-2.01668e-06
-3.32771e-07
-1.95366e-06
-4.22564e-07
-1.87772e-06
-5.07008e-07
-1.78976e-06
-5.84816e-07
-1.69085e-06
-6.54723e-07
-1.58222e-06
-7.15502e-07
-1.46529e-06
-7.65986e-07
-1.34163e-06
-8.05094e-07
-1.21296e-06
-8.31856e-07
-1.08114e-06
-8.4545e-07
-9.48121e-07
-8.45228e-07
-8.15969e-07
-8.30765e-07
-6.86795e-07
-8.01889e-07
-5.62745e-07
-7.58729e-07
-4.45963e-07
-7.01758e-07
-3.38563e-07
-6.31836e-07
-2.42597e-07
-5.50252e-07
-1.60035e-07
-4.58772e-07
-9.27504e-08
-3.59675e-07
-4.25229e-08
-2.55766e-07
-1.10522e-08
-1.50388e-07
-4.76129e-08
-2.28591e-06
-5.01758e-08
-2.26435e-06
-1.63867e-07
-2.22738e-06
-2.75891e-07
-2.17536e-06
-3.84796e-07
-2.10881e-06
-4.89113e-07
-2.02845e-06
-5.87367e-07
-1.93518e-06
-6.78083e-07
-1.8301e-06
-7.59811e-07
-1.71446e-06
-8.31138e-07
-1.58973e-06
-8.90716e-07
-1.45754e-06
-9.37287e-07
-1.31968e-06
-9.69718e-07
-1.17809e-06
-9.87033e-07
-1.03486e-06
-9.88456e-07
-8.92181e-07
-9.73447e-07
-7.52317e-07
-9.41753e-07
-6.17599e-07
-8.93447e-07
-4.90381e-07
-8.28977e-07
-3.73008e-07
-7.49209e-07
-2.67791e-07
-6.55469e-07
-1.76978e-07
-5.49585e-07
-1.02743e-07
-4.33911e-07
-4.71716e-08
-3.11337e-07
-1.22739e-08
-1.85286e-07
-5.98869e-08
-2.4481e-06
-5.59847e-08
-2.42586e-06
-1.86101e-07
-2.38736e-06
-3.14389e-07
-2.33294e-06
-4.3922e-07
-2.26311e-06
-5.58943e-07
-2.17859e-06
-6.71891e-07
-2.08027e-06
-7.76401e-07
-1.96925e-06
-8.70826e-07
-1.84683e-06
-9.53557e-07
-1.7145e-06
-1.02305e-06
-1.57393e-06
-1.07786e-06
-1.42699e-06
-1.11666e-06
-1.27571e-06
-1.13831e-06
-1.12229e-06
-1.14188e-06
-9.69045e-07
-1.12669e-06
-8.18427e-07
-1.09237e-06
-6.7295e-07
-1.03892e-06
-5.35187e-07
-9.6674e-07
-4.0773e-07
-8.76666e-07
-2.93158e-07
-7.70041e-07
-1.94013e-07
-6.48731e-07
-1.12769e-07
-5.15154e-07
-5.18255e-08
-3.72281e-07
-1.34934e-08
-2.23618e-07
-7.33802e-08
-2.60883e-06
-6.14794e-08
-2.5861e-06
-2.08822e-07
-2.5463e-06
-3.54197e-07
-2.48972e-06
-4.95797e-07
-2.41688e-06
-6.31785e-07
-2.32846e-06
-7.60305e-07
-2.22537e-06
-8.79496e-07
-2.10869e-06
-9.87507e-07
-1.97972e-06
-1.08252e-06
-1.83999e-06
-1.16278e-06
-1.69121e-06
-1.22664e-06
-1.5353e-06
-1.27257e-06
-1.37439e-06
-1.29922e-06
-1.21079e-06
-1.30548e-06
-1.04695e-06
-1.29052e-06
-8.85494e-07
-1.25383e-06
-7.29139e-07
-1.19528e-06
-5.80688e-07
-1.11519e-06
-4.42993e-07
-1.01436e-06
-3.18917e-07
-8.94117e-07
-2.11302e-07
-7.56346e-07
-1.22939e-07
-6.03517e-07
-5.65421e-08
-4.38678e-07
-1.47282e-08
-2.65432e-07
-8.81084e-08
-2.76811e-06
-6.65049e-08
-2.7451e-06
-2.31831e-07
-2.70422e-06
-3.95075e-07
-2.64576e-06
-5.54252e-07
-2.57021e-06
-7.07344e-07
-2.47821e-06
-8.523e-07
-2.37065e-06
-9.87058e-07
-2.2486e-06
-1.10955e-06
-2.11337e-06
-1.21775e-06
-1.96648e-06
-1.30968e-06
-1.80967e-06
-1.38344e-06
-1.64494e-06
-1.4373e-06
-1.47449e-06
-1.46968e-06
-1.30072e-06
-1.47925e-06
-1.12625e-06
-1.46499e-06
-9.5387e-07
-1.42621e-06
-7.86499e-07
-1.36265e-06
-6.27189e-07
-1.2745e-06
-4.79062e-07
-1.16249e-06
-3.45282e-07
-1.0279e-06
-2.29007e-07
-8.7262e-07
-1.33358e-07
-6.99166e-07
-6.13768e-08
-5.1066e-07
-1.59949e-08
-3.10814e-07
-1.04103e-07
-2.92567e-06
-7.08964e-08
-2.90259e-06
-2.54908e-07
-2.86091e-06
-4.36754e-07
-2.80089e-06
-6.14279e-07
-2.72295e-06
-7.85281e-07
-2.62773e-06
-9.4752e-07
-2.51606e-06
-1.09872e-06
-2.389e-06
-1.23661e-06
-2.24784e-06
-1.35892e-06
-2.09408e-06
-1.46343e-06
-1.92951e-06
-1.54801e-06
-1.75614e-06
-1.61066e-06
-1.57627e-06
-1.64955e-06
-1.39239e-06
-1.66313e-06
-1.20727e-06
-1.65011e-06
-1.02387e-06
-1.60961e-06
-8.45341e-07
-1.54118e-06
-6.74977e-07
-1.44486e-06
-5.16191e-07
-1.32127e-06
-3.72462e-07
-1.17163e-06
-2.47286e-07
-9.97796e-07
-1.4413e-07
-8.02322e-07
-6.63824e-08
-5.88407e-07
-1.73093e-08
-3.59887e-07
-1.21413e-07
-3.08098e-06
-7.44814e-08
-3.05807e-06
-2.77816e-07
-3.01589e-06
-4.78937e-07
-2.95464e-06
-6.75527e-07
-2.87471e-06
-8.65207e-07
-2.77669e-06
-1.04554e-06
-2.66135e-06
-1.21406e-06
-2.52971e-06
-1.36826e-06
-2.38301e-06
-1.50562e-06
-2.22277e-06
-1.62368e-06
-2.05075e-06
-1.72003e-06
-1.86901e-06
-1.7924e-06
-1.67989e-06
-1.83867e-06
-1.48601e-06
-1.85701e-06
-1.29026e-06
-1.84586e-06
-1.09578e-06
-1.80409e-06
-9.05944e-07
-1.73102e-06
-7.24319e-07
-1.62649e-06
-5.54618e-07
-1.49097e-06
-4.00656e-07
-1.32559e-06
-2.66287e-07
-1.13216e-06
-1.55351e-07
-9.13258e-07
-7.16091e-08
-6.72149e-07
-1.86859e-08
-4.1281e-07
-1.40098e-07
-3.23318e-06
-7.70817e-08
-3.21071e-06
-3.00294e-07
-3.16835e-06
-5.21289e-07
-3.10629e-06
-7.37595e-07
-3.02483e-06
-9.46665e-07
-2.92449e-06
-1.14588e-06
-2.806e-06
-1.33255e-06
-2.6703e-06
-1.50396e-06
-2.51858e-06
-1.65734e-06
-2.35232e-06
-1.78994e-06
-2.17328e-06
-1.89907e-06
-1.98352e-06
-1.98215e-06
-1.78543e-06
-2.03676e-06
-1.58172e-06
-2.06072e-06
-1.3754e-06
-2.05218e-06
-1.16981e-06
-2.00968e-06
-9.68549e-07
-1.93228e-06
-7.75454e-07
-1.81959e-06
-5.94563e-07
-1.67186e-06
-4.30049e-07
-1.4901e-06
-2.86152e-07
-1.27606e-06
-1.67116e-07
-1.03229e-06
-7.7105e-08
-7.62159e-07
-2.01389e-08
-4.69776e-07
-1.60237e-07
-3.38113e-06
-7.8517e-08
-3.35936e-06
-3.22063e-07
-3.31721e-06
-5.63438e-07
-3.25478e-06
-8.00028e-07
-3.17232e-06
-1.02913e-06
-3.07025e-06
-1.24794e-06
-2.94923e-06
-1.45358e-06
-2.8101e-06
-1.64309e-06
-2.654e-06
-1.81344e-06
-2.48232e-06
-1.96161e-06
-2.2968e-06
-2.08459e-06
-2.09949e-06
-2.17946e-06
-1.89281e-06
-2.24344e-06
-1.67953e-06
-2.274e-06
-1.4628e-06
-2.2689e-06
-1.24613e-06
-2.22635e-06
-1.03335e-06
-2.14506e-06
-8.2859e-07
-2.02435e-06
-6.36226e-07
-1.86423e-06
-4.60815e-07
-1.66552e-06
-3.07017e-07
-1.42986e-06
-1.79513e-07
-1.1598e-06
-8.29168e-08
-8.58756e-07
-2.1682e-08
-5.31011e-07
-1.81919e-07
-3.52332e-06
-7.86097e-08
-3.50256e-06
-3.42826e-07
-3.46102e-06
-6.0497e-07
-3.39875e-06
-8.62306e-07
-3.31589e-06
-1.11199e-06
-3.21278e-06
-1.35105e-06
-3.08996e-06
-1.5764e-06
-2.94818e-06
-1.78487e-06
-2.78846e-06
-1.97316e-06
-2.61212e-06
-2.13795e-06
-2.42082e-06
-2.2759e-06
-2.21657e-06
-2.3837e-06
-2.00181e-06
-2.45821e-06
-1.77936e-06
-2.49645e-06
-1.55247e-06
-2.49579e-06
-1.32483e-06
-2.454e-06
-1.10049e-06
-2.3694e-06
-8.83902e-07
-2.24094e-06
-6.79785e-07
-2.06834e-06
-4.93116e-07
-1.85219e-06
-3.29009e-07
-1.59397e-06
-1.92631e-07
-1.29618e-06
-8.90901e-08
-9.62297e-07
-2.33288e-08
-5.96772e-07
-2.05248e-07
-3.65787e-06
-7.71907e-08
-3.63843e-06
-3.62266e-07
-3.59797e-06
-6.4543e-07
-3.53643e-06
-9.23843e-07
-3.45388e-06
-1.19454e-06
-3.35053e-06
-1.45439e-06
-3.22679e-06
-1.70015e-06
-3.08328e-06
-1.92838e-06
-2.92088e-06
-2.13556e-06
-2.7408e-06
-2.31803e-06
-2.54459e-06
-2.47211e-06
-2.33421e-06
-2.59409e-06
-2.11205e-06
-2.68037e-06
-1.88097e-06
-2.72753e-06
-1.64431e-06
-2.73245e-06
-1.40591e-06
-2.6924e-06
-1.17007e-06
-2.60524e-06
-9.41525e-07
-2.46948e-06
-7.25396e-07
-2.28447e-06
-5.271e-07
-2.05048e-06
-3.52253e-07
-1.76881e-06
-2.06556e-07
-1.44187e-06
-9.56708e-08
-1.07318e-06
-2.5093e-08
-6.6735e-07
-2.30341e-07
-3.78251e-06
-7.4106e-08
-3.76472e-06
-3.80057e-07
-3.72582e-06
-6.84321e-07
-3.66568e-06
-9.83983e-07
-3.58425e-06
-1.27598e-06
-3.48158e-06
-1.55705e-06
-3.35795e-06
-1.82378e-06
-3.2138e-06
-2.07253e-06
-3.04986e-06
-2.2995e-06
-2.86716e-06
-2.50073e-06
-2.66714e-06
-2.67213e-06
-2.45163e-06
-2.8096e-06
-2.22296e-06
-2.90904e-06
-1.98398e-06
-2.96651e-06
-1.7381e-06
-2.97832e-06
-1.4893e-06
-2.94121e-06
-1.2421e-06
-2.85244e-06
-1.00156e-06
-2.71003e-06
-7.73193e-07
-2.51284e-06
-5.62908e-07
-2.26077e-06
-3.76869e-07
-1.95485e-06
-2.21373e-07
-1.59737e-06
-1.02706e-07
-1.19185e-06
-2.6989e-08
-7.43067e-07
-2.5733e-07
-3.89453e-06
-6.92256e-08
-3.87873e-06
-3.95865e-07
-3.84194e-06
-7.21107e-07
-3.78393e-06
-1.042e-06
-3.7045e-06
-1.3554e-06
-3.60359e-06
-1.65797e-06
-3.48125e-06
-1.94612e-06
-3.33775e-06
-2.21603e-06
-3.17361e-06
-2.46364e-06
-2.98967e-06
-2.68466e-06
-2.78716e-06
-2.87464e-06
-2.56778e-06
-3.02898e-06
-2.33373e-06
-3.14309e-06
-2.08782e-06
-3.21241e-06
-1.83348e-06
-3.23266e-06
-1.57481e-06
-3.19988e-06
-1.31654e-06
-3.11071e-06
-1.06405e-06
-2.96252e-06
-8.23285e-07
-2.7536e-06
-6.00671e-07
-2.48338e-06
-4.02977e-07
-2.15255e-06
-2.37171e-07
-1.76317e-06
-1.10245e-07
-1.31877e-06
-2.90322e-08
-8.2428e-07
-2.86362e-07
-3.99078e-06
-6.24525e-08
-3.9773e-06
-4.09353e-07
-3.94318e-06
-7.55218e-07
-3.88809e-06
-1.09709e-06
-3.81169e-06
-1.4318e-06
-3.71373e-06
-1.75593e-06
-3.59406e-06
-2.06579e-06
-3.45272e-06
-2.35738e-06
-3.28997e-06
-2.62639e-06
-3.10641e-06
-2.86822e-06
-2.90304e-06
-3.07802e-06
-2.68132e-06
-3.2507e-06
-2.44331e-06
-3.38109e-06
-2.19171e-06
-3.46401e-06
-1.92993e-06
-3.49444e-06
-1.66213e-06
-3.46768e-06
-1.39326e-06
-3.37958e-06
-1.12901e-06
-3.22677e-06
-8.7576e-07
-3.00684e-06
-6.40511e-07
-2.71863e-06
-4.30701e-07
-2.36236e-06
-2.54047e-07
-1.93983e-06
-1.18342e-07
-1.45448e-06
-3.12396e-08
-9.11383e-07
-3.17602e-07
-4.0676e-06
-5.37337e-08
-4.05675e-06
-4.20195e-07
-4.02592e-06
-7.86053e-07
-3.97462e-06
-1.14839e-06
-3.90237e-06
-1.50405e-06
-3.80871e-06
-1.84959e-06
-3.69327e-06
-2.18123e-06
-3.55581e-06
-2.49484e-06
-3.39631e-06
-2.78589e-06
-3.21506e-06
-3.04947e-06
-3.01275e-06
-3.28033e-06
-2.79058e-06
-3.47287e-06
-2.55037e-06
-3.6213e-06
-2.29464e-06
-3.71974e-06
-2.02673e-06
-3.76235e-06
-1.75083e-06
-3.74358e-06
-1.47205e-06
-3.65837e-06
-1.19638e-06
-3.50244e-06
-9.30681e-07
-3.27254e-06
-6.8255e-07
-2.96676e-06
-4.60168e-07
-2.58474e-06
-2.72101e-07
-2.1279e-06
-1.27058e-07
-1.59952e-06
-3.36304e-08
-1.00481e-06
-3.51232e-07
-4.12079e-06
-4.30712e-08
-4.1129e-06
-4.28083e-07
-4.08596e-06
-8.12993e-07
-4.03938e-06
-1.19497e-06
-3.97251e-06
-1.57092e-06
-3.88467e-06
-1.93743e-06
-3.77521e-06
-2.29068e-06
-3.64361e-06
-2.62644e-06
-3.48949e-06
-2.94e-06
-3.3128e-06
-3.22617e-06
-3.11384e-06
-3.47928e-06
-2.89348e-06
-3.69323e-06
-2.65322e-06
-3.86157e-06
-2.39532e-06
-3.97764e-06
-2.12295e-06
-4.03471e-06
-1.8403e-06
-4.02624e-06
-1.55257e-06
-3.9461e-06
-1.26606e-06
-3.78895e-06
-9.88084e-07
-3.55051e-06
-7.26904e-07
-3.22794e-06
-4.91519e-07
-2.82012e-06
-2.91452e-07
-2.32796e-06
-1.36461e-07
-1.75451e-06
-3.62273e-08
-1.10504e-06
-3.8746e-07
-4.14564e-06
-3.05343e-08
-4.14098e-06
-4.32739e-07
-4.11857e-06
-8.35406e-07
-4.07769e-06
-1.23585e-06
-4.01752e-06
-1.6311e-06
-3.93714e-06
-2.0178e-06
-3.83563e-06
-2.39219e-06
-3.7121e-06
-2.74997e-06
-3.56582e-06
-3.08629e-06
-3.39628e-06
-3.39571e-06
-3.20337e-06
-3.67219e-06
-2.9875e-06
-3.90909e-06
-2.74977e-06
-4.09931e-06
-2.49209e-06
-4.23532e-06
-2.2174e-06
-4.30941e-06
-1.92973e-06
-4.3139e-06
-1.63437e-06
-4.24146e-06
-1.33785e-06
-4.08547e-06
-1.04798e-06
-3.84039e-06
-7.73691e-07
-3.50223e-06
-5.24907e-07
-3.06891e-06
-3.12232e-07
-2.54064e-06
-1.46633e-07
-1.92011e-06
-3.90573e-08
-1.21262e-06
-4.26517e-07
-4.13683e-06
-1.62703e-08
-4.13565e-06
-4.33927e-07
-4.11838e-06
-8.52667e-07
-4.08423e-06
-1.27001e-06
-4.03216e-06
-1.68316e-06
-3.96104e-06
-2.08892e-06
-3.86963e-06
-2.48361e-06
-3.75666e-06
-2.86294e-06
-3.62095e-06
-3.22199e-06
-3.46154e-06
-3.55512e-06
-3.27779e-06
-3.85594e-06
-3.06958e-06
-4.11731e-06
-2.83747e-06
-4.33141e-06
-2.58295e-06
-4.48984e-06
-2.30855e-06
-4.58381e-06
-2.0181e-06
-4.60435e-06
-1.71683e-06
-4.54273e-06
-1.41149e-06
-4.39081e-06
-1.11033e-06
-4.14155e-06
-8.23032e-07
-3.78953e-06
-5.60509e-07
-3.33143e-06
-3.34601e-07
-2.76655e-06
-1.57673e-07
-2.09704e-06
-4.21534e-08
-1.32814e-06
-4.6867e-07
-4.08849e-06
-5.15653e-10
-4.09095e-06
-4.3147e-07
-4.07945e-06
-8.64171e-07
-4.05305e-06
-1.29641e-06
-4.01057e-06
-1.72563e-06
-3.95061e-06
-2.14888e-06
-3.87162e-06
-2.56261e-06
-3.77192e-06
-2.96264e-06
-3.64987e-06
-3.34404e-06
-3.50395e-06
-3.70104e-06
-3.33293e-06
-4.02696e-06
-3.13604e-06
-4.31419e-06
-2.91324e-06
-4.55421e-06
-2.66538e-06
-4.7377e-06
-2.3945e-06
-4.85468e-06
-2.10406e-06
-4.89479e-06
-1.79914e-06
-4.84765e-06
-1.48659e-06
-4.70336e-06
-1.17508e-06
-4.45306e-06
-8.75054e-07
-4.08955e-06
-5.98533e-07
-3.60795e-06
-3.58754e-07
-3.00632e-06
-1.69704e-07
-2.28609e-06
-4.55569e-08
-1.45229e-06
-5.14227e-07
-3.99413e-06
1.63968e-08
-4.00034e-06
-4.25258e-07
-3.99516e-06
-8.69355e-07
-3.97755e-06
-1.31401e-06
-3.94618e-06
-1.75701e-06
-3.89938e-06
-2.19567e-06
-3.83528e-06
-2.6267e-06
-3.7518e-06
-3.04612e-06
-3.64678e-06
-3.44907e-06
-3.51809e-06
-3.82973e-06
-3.36383e-06
-4.18122e-06
-3.18251e-06
-4.49551e-06
-2.9733e-06
-4.76343e-06
-2.73629e-06
-4.97471e-06
-2.47286e-06
-5.11811e-06
-2.18592e-06
-5.18173e-06
-1.88023e-06
-5.15335e-06
-1.5626e-06
-5.02099e-06
-1.24209e-06
-4.77358e-06
-9.29889e-07
-4.40175e-06
-6.39227e-07
-3.89861e-06
-3.8493e-07
-3.26062e-06
-1.82881e-07
-2.48814e-06
-4.93204e-08
-1.58585e-06
-5.63548e-07
-3.8467e-06
3.40327e-08
-3.85669e-06
-4.1527e-07
-3.85832e-06
-8.67719e-07
-3.85051e-06
-1.32183e-06
-3.83174e-06
-1.77578e-06
-3.80015e-06
-2.22725e-06
-3.75354e-06
-2.67332e-06
-3.68939e-06
-3.11026e-06
-3.60503e-06
-3.53343e-06
-3.49769e-06
-3.93707e-06
-3.36472e-06
-4.31419e-06
-3.20377e-06
-4.65646e-06
-3.01312e-06
-4.95409e-06
-2.79192e-06
-5.1959e-06
-2.54067e-06
-5.36936e-06
-2.26152e-06
-5.46089e-06
-1.95868e-06
-5.45618e-06
-1.63881e-06
-5.34086e-06
-1.31115e-06
-5.10124e-06
-9.87675e-07
-4.72522e-06
-6.82889e-07
-4.2034e-06
-4.13428e-07
-3.53008e-06
-1.97399e-07
-2.70417e-06
-5.35119e-08
-1.72973e-06
-6.17059e-07
-3.63857e-06
5.18573e-08
-3.65226e-06
-4.01578e-07
-3.66113e-06
-8.5885e-07
-3.66403e-06
-1.31894e-06
-3.65934e-06
-1.78047e-06
-3.645e-06
-2.2416e-06
-3.6185e-06
-2.69982e-06
-3.57693e-06
-3.15183e-06
-3.51709e-06
-3.59327e-06
-3.43554e-06
-4.01862e-06
-3.32881e-06
-4.42092e-06
-3.19363e-06
-4.79163e-06
-3.02722e-06
-5.12051e-06
-2.82762e-06
-5.3955e-06
-2.59419e-06
-5.60279e-06
-2.32807e-06
-5.72701e-06
-2.03267e-06
-5.75157e-06
-1.71419e-06
-5.65934e-06
-1.38194e-06
-5.43349e-06
-1.04854e-06
-5.05861e-06
-7.29881e-07
-4.52206e-06
-4.4463e-07
-3.81533e-06
-2.13516e-07
-2.93528e-06
-5.82207e-08
-1.88503e-06
-6.7528e-07
-3.36163e-06
6.92429e-08
-3.37885e-06
-3.84359e-07
-3.39525e-06
-8.42451e-07
-3.40966e-06
-1.30452e-06
-3.42041e-06
-1.76972e-06
-3.42527e-06
-2.23674e-06
-3.42148e-06
-2.70362e-06
-3.40577e-06
-3.16754e-06
-3.37442e-06
-3.62462e-06
-3.32334e-06
-4.0697e-06
-3.24822e-06
-4.49604e-06
-3.14477e-06
-4.89508e-06
-3.009e-06
-5.25627e-06
-2.83767e-06
-5.56683e-06
-2.62875e-06
-5.81172e-06
-2.38202e-06
-5.97373e-06
-2.09976e-06
-6.03383e-06
-1.78737e-06
-5.97174e-06
-1.45393e-06
-5.76693e-06
-1.1126e-06
-5.39995e-06
-7.80639e-07
-4.85402e-06
-4.79023e-07
-4.11695e-06
-2.31565e-07
-3.18274e-06
-6.35658e-08
-2.05303e-06
-7.38846e-07
-3.00731e-06
8.54861e-08
-3.02777e-06
-3.639e-07
-3.05185e-06
-8.18364e-07
-3.07844e-06
-1.27794e-06
-3.1058e-06
-1.74235e-06
-3.13164e-06
-2.2109e-06
-3.15301e-06
-2.68225e-06
-3.16634e-06
-3.1542e-06
-3.16747e-06
-3.6235e-06
-3.15167e-06
-4.0855e-06
-3.11381e-06
-4.5339e-06
-3.04852e-06
-4.96037e-06
-2.95052e-06
-5.35426e-06
-2.81507e-06
-5.70229e-06
-2.63845e-06
-5.98833e-06
-2.41877e-06
-6.19342e-06
-2.1567e-06
-6.2959e-06
-1.8564e-06
-6.27203e-06
-1.52634e-06
-6.097e-06
-1.17989e-06
-5.74639e-06
-8.35685e-07
-5.19823e-06
-5.17229e-07
-4.43541e-06
-2.51989e-07
-3.44798e-06
-6.97079e-08
-2.23531e-06
-8.08554e-07
-2.5667e-06
9.98346e-08
-2.59001e-06
-3.40595e-07
-2.62178e-06
-7.86594e-07
-2.66095e-06
-1.23876e-06
-2.70586e-06
-1.69744e-06
-2.75418e-06
-2.16258e-06
-2.80289e-06
-2.63354e-06
-2.84821e-06
-3.10888e-06
-2.88562e-06
-3.58608e-06
-2.90987e-06
-4.06125e-06
-2.91504e-06
-4.52873e-06
-2.8947e-06
-4.98071e-06
-2.84222e-06
-5.40675e-06
-2.75115e-06
-5.79336e-06
-2.61586e-06
-6.12363e-06
-2.43231e-06
-6.37696e-06
-2.1991e-06
-6.52911e-06
-1.91854e-06
-6.55259e-06
-1.59789e-06
-6.41765e-06
-1.25032e-06
-6.09395e-06
-8.95621e-07
-5.55294e-06
-5.60049e-07
-4.77098e-06
-2.75385e-07
-3.73264e-06
-7.68681e-08
-2.43383e-06
-8.85422e-07
-2.03072e-06
1.11526e-07
-2.05638e-06
-3.14936e-07
-2.09564e-06
-7.47336e-07
-2.14756e-06
-1.18684e-06
-2.21059e-06
-1.63441e-06
-2.28249e-06
-2.09068e-06
-2.36026e-06
-2.55577e-06
-2.44008e-06
-3.02907e-06
-2.5172e-06
-3.50896e-06
-2.58599e-06
-3.99247e-06
-2.63985e-06
-4.47487e-06
-2.67139e-06
-4.94917e-06
-2.6726e-06
-5.40553e-06
-2.63526e-06
-5.8307e-06
-2.55152e-06
-6.20737e-06
-2.41481e-06
-6.51366e-06
-2.22101e-06
-6.72291e-06
-1.96986e-06
-6.80374e-06
-1.6666e-06
-6.72092e-06
-1.32351e-06
-6.43704e-06
-9.61106e-07
-5.91534e-06
-6.08509e-07
-5.12358e-06
-3.02556e-07
-4.0386e-06
-8.53554e-08
-2.65103e-06
-9.70777e-07
-1.39023e-06
1.19841e-07
-1.41767e-06
-2.87494e-07
-1.46402e-06
-7.00989e-07
-1.52851e-06
-1.12234e-06
-1.6098e-06
-1.55313e-06
-1.70583e-06
-1.99465e-06
-1.81378e-06
-2.44782e-06
-1.92992e-06
-2.91293e-06
-2.04951e-06
-3.38936e-06
-2.16672e-06
-3.87526e-06
-2.2745e-06
-4.36709e-06
-2.36465e-06
-4.85902e-06
-2.4279e-06
-5.34228e-06
-2.45423e-06
-5.80438e-06
-2.43341e-06
-6.22819e-06
-2.35592e-06
-6.59115e-06
-2.21426e-06
-6.86457e-06
-2.00469e-06
-7.01331e-06
-1.72934e-06
-6.99626e-06
-1.39854e-06
-6.76784e-06
-1.03278e-06
-6.2811e-06
-6.63911e-07
-5.49245e-06
-3.34603e-07
-4.3679e-06
-9.56118e-08
-2.89002e-06
-1.06639e-06
-6.36292e-07
1.24162e-07
-6.64892e-07
-2.58895e-07
-7.17717e-07
-6.48164e-07
-7.94235e-07
-1.04582e-06
-8.93364e-07
-1.454e-06
-1.01337e-06
-1.87464e-06
-1.15177e-06
-2.30943e-06
-1.30513e-06
-2.75957e-06
-1.46895e-06
-3.22554e-06
-1.63748e-06
-3.70674e-06
-1.80353e-06
-4.20104e-06
-1.95837e-06
-4.70418e-06
-2.09172e-06
-5.20893e-06
-2.19189e-06
-5.7042e-06
-2.24625e-06
-6.17383e-06
-2.24199e-06
-6.59541e-06
-2.16758e-06
-6.93898e-06
-2.01474e-06
-7.16616e-06
-1.78111e-06
-7.22989e-06
-1.47351e-06
-7.07545e-06
-1.1111e-06
-6.6435e-06
-7.27873e-07
-5.87568e-06
-3.73049e-07
-4.72273e-06
-1.08284e-07
-3.15478e-06
-1.17467e-06
2.3957e-07
1.2405e-07
2.10453e-07
-2.29777e-07
1.51982e-07
-5.89692e-07
6.44205e-08
-9.58264e-07
-5.15038e-08
-1.33807e-06
-1.94497e-07
-1.73165e-06
-3.62556e-07
-2.14137e-06
-5.52795e-07
-2.56933e-06
-7.61228e-07
-3.0171e-06
-9.82522e-07
-3.48544e-06
-1.20973e-06
-3.97383e-06
-1.43406e-06
-4.47985e-06
-1.64462e-06
-4.99837e-06
-1.82843e-06
-5.52039e-06
-1.9706e-06
-6.03167e-06
-2.05495e-06
-6.51105e-06
-2.06536e-06
-6.92857e-06
-1.98786e-06
-7.24365e-06
-1.81394e-06
-7.40381e-06
-1.54473e-06
-7.34465e-06
-1.19595e-06
-6.99229e-06
-8.02326e-07
-6.2693e-06
-4.20013e-07
-5.10504e-06
-1.24348e-07
-3.45045e-06
-1.29902e-06
1.24508e-06
1.19315e-07
1.21606e-06
-2.00759e-07
1.15298e-06
-5.26616e-07
1.05581e-06
-8.61097e-07
9.24864e-07
-1.20712e-06
7.6088e-07
-1.56766e-06
5.65207e-07
-1.9457e-06
3.39976e-07
-2.3441e-06
8.83535e-08
-2.76548e-06
-1.85152e-07
-3.21194e-06
-4.74327e-07
-3.68465e-06
-7.70851e-07
-4.18333e-06
-1.0639e-06
-4.70532e-06
-1.3398e-06
-5.24448e-06
-1.58192e-06
-5.78954e-06
-1.77097e-06
-6.32201e-06
-1.88593e-06
-6.81361e-06
-1.9062e-06
-7.22339e-06
-1.81512e-06
-7.49489e-06
-1.60534e-06
-7.55443e-06
-1.28583e-06
-7.3118e-06
-8.8937e-07
-6.66576e-06
-4.78453e-07
-5.51596e-06
-1.45318e-07
-3.78358e-06
-1.44434e-06
2.38683e-06
1.10089e-07
2.35845e-06
-1.72386e-07
2.29201e-06
-4.60175e-07
2.18716e-06
-7.56242e-07
2.04373e-06
-1.0637e-06
1.86186e-06
-1.38579e-06
1.64209e-06
-1.72593e-06
1.38559e-06
-2.0876e-06
1.09442e-06
-2.4743e-06
7.71833e-07
-2.88935e-06
4.22783e-07
-3.3356e-06
5.43989e-08
-3.81495e-06
-3.23377e-07
-4.32755e-06
-6.9715e-07
-4.87071e-06
-1.04952e-06
-5.43717e-06
-1.35879e-06
-6.01273e-06
-1.59941e-06
-6.57299e-06
-1.74351e-06
-7.07929e-06
-1.76443e-06
-7.47398e-06
-1.64289e-06
-7.67597e-06
-1.37634e-06
-7.57836e-06
-9.90756e-07
-7.05134e-06
-5.5245e-07
-5.95426e-06
-1.73616e-07
-4.16242e-06
-1.61796e-06
3.66992e-06
9.68791e-08
3.64263e-06
-1.45102e-07
3.57424e-06
-3.91783e-07
3.4641e-06
-6.46096e-07
3.31156e-06
-9.11162e-07
3.1161e-06
-1.19033e-06
2.87737e-06
-1.4872e-06
2.59541e-06
-1.80565e-06
2.27092e-06
-2.14981e-06
1.90555e-06
-2.52398e-06
1.5024e-06
-2.93246e-06
1.06667e-06
-3.37921e-06
6.0639e-07
-3.86727e-06
1.33411e-07
-4.39773e-06
-3.35551e-07
-4.96821e-06
-7.77947e-07
-5.57033e-06
-1.16484e-06
-6.18609e-06
-1.46146e-06
-6.78267e-06
-1.62986e-06
-7.30558e-06
-1.63518e-06
-7.67065e-06
-1.457e-06
-7.75654e-06
-1.10648e-06
-7.40186e-06
-6.47397e-07
-6.41335e-06
-2.13204e-07
-4.59661e-06
-1.83116e-06
5.09752e-06
8.05958e-08
5.07164e-06
-1.19219e-07
5.00286e-06
-3.23012e-07
4.89029e-06
-5.33523e-07
4.73283e-06
-7.53704e-07
4.52928e-06
-9.86781e-07
4.27841e-06
-1.23632e-06
3.97906e-06
-1.5063e-06
3.63039e-06
-1.80114e-06
3.23216e-06
-2.12575e-06
2.78518e-06
-2.48548e-06
2.29194e-06
-2.88598e-06
1.75751e-06
-3.33283e-06
1.19067e-06
-3.8309e-06
6.05477e-07
-4.38302e-06
2.29824e-08
-4.98784e-06
-5.26986e-07
-5.63613e-06
-1.00469e-06
-6.30496e-06
-1.36123e-06
-6.94904e-06
-1.54332e-06
-7.48856e-06
-1.50525e-06
-7.7946e-06
-1.2313e-06
-7.67581e-06
-7.69599e-07
-6.87505e-06
-2.70605e-07
-5.0956e-06
-2.10177e-06
6.67046e-06
6.25314e-08
6.64616e-06
-9.49239e-08
6.57872e-06
-2.55573e-07
6.46702e-06
-4.21817e-07
6.30958e-06
-5.96269e-07
6.10463e-06
-7.8183e-07
5.85009e-06
-9.81779e-07
5.54367e-06
-1.19987e-06
5.18298e-06
-1.44046e-06
4.7658e-06
-1.70856e-06
4.29033e-06
-2.01001e-06
3.75583e-06
-2.35148e-06
3.1634e-06
-2.74041e-06
2.51726e-06
-3.18476e-06
1.82649e-06
-3.69224e-06
1.10746e-06
-4.26881e-06
3.8691e-07
-4.91557e-06
-2.94769e-07
-5.62328e-06
-8.81059e-07
-6.36275e-06
-1.30029e-06
-7.06932e-06
-1.47493e-06
-7.61996e-06
-1.34646e-06
-7.80428e-06
-9.23726e-07
-7.29779e-06
-3.56271e-07
-5.66306e-06
-2.45804e-06
8.3868e-06
4.42792e-08
8.3642e-06
-7.23209e-08
8.29995e-06
-1.9132e-07
8.19279e-06
-3.14665e-07
8.04102e-06
-4.44491e-07
7.84239e-06
-5.83202e-07
7.59418e-06
-7.33566e-07
7.29313e-06
-8.98831e-07
6.93553e-06
-1.08286e-06
6.51726e-06
-1.29029e-06
6.034e-06
-1.52675e-06
5.48157e-06
-1.79905e-06
4.85657e-06
-2.11541e-06
4.1574e-06
-2.48559e-06
3.386e-06
-2.92085e-06
2.55051e-06
-3.43332e-06
1.66923e-06
-4.0343e-06
7.76137e-07
-4.73019e-06
-7.26429e-08
-5.51397e-06
-7.9322e-07
-6.34875e-06
-1.27512e-06
-7.13806e-06
-1.40098e-06
-7.67842e-06
-1.10342e-06
-7.59535e-06
-4.84947e-07
-6.28153e-06
-2.94298e-06
1.02415e-05
2.75758e-08
1.02207e-05
-5.15272e-08
1.01617e-05
-1.32277e-07
1.00631e-05
-2.16099e-07
9.92319e-06
-3.04566e-07
9.73946e-06
-3.99471e-07
9.5088e-06
-5.0291e-07
9.22736e-06
-6.1739e-07
8.89047e-06
-7.45965e-07
8.49259e-06
-8.92416e-07
8.02733e-06
-1.06148e-06
7.48745e-06
-1.25918e-06
6.86521e-06
-1.49316e-06
6.15284e-06
-1.77322e-06
5.34383e-06
-2.11183e-06
4.43507e-06
-2.52456e-06
3.43085e-06
-3.03008e-06
2.34939e-06
-3.64872e-06
1.233e-06
-4.39758e-06
1.61743e-07
-5.27749e-06
-7.3336e-07
-6.24296e-06
-1.27073e-06
-7.14105e-06
-1.26163e-06
-7.60445e-06
-6.6822e-07
-6.87494e-06
-3.6112e-06
1.22262e-05
1.40571e-08
1.22075e-05
-3.28309e-08
1.21559e-05
-8.07068e-08
1.20703e-05
-1.30469e-07
1.19488e-05
-1.83118e-07
1.17892e-05
-2.39801e-07
1.15881e-05
-3.01878e-07
1.13418e-05
-3.71002e-07
1.1045e-05