/*--------------------------------*- C++ -*----------------------------------*\
| =========                 |                                                 |
| \\      /  F ield         | OpenFOAM: The Open Source CFD Toolbox           |
|  \\    /   O peration     | Version:  v2012                                 |
|   \\  /    A nd           | Website:  www.openfoam.com                      |
|    \\/     M anipulation  |                                                 |
\*---------------------------------------------------------------------------*/
FoamFile
{
    version     2.0;
    format      ascii;
    class       volVectorField;
    location    "0.4";
    object      U;
}
// * * * * * * * * * * * * * * * * * * * * * * * * * * * * * * * * * * * * * //

dimensions      [0 1 -1 0 0 0 0];


internalField   nonuniform List<vector> 
1250
(
(-0.00705731 -8.10195e-06 0)
(-0.006999 -2.69482e-05 0)
(-0.00687949 -4.55384e-05 0)
(-0.00670013 -6.36092e-05 0)
(-0.00646314 -8.08886e-05 0)
(-0.00617165 -9.70973e-05 0)
(-0.0058297 -0.000111951 0)
(-0.00544223 -0.00012516 0)
(-0.00501511 -0.000136437 0)
(-0.0045551 -0.000145496 0)
(-0.00406984 -0.000152058 0)
(-0.00356779 -0.000155853 0)
(-0.00305817 -0.000156629 0)
(-0.00255091 -0.000154147 0)
(-0.0020565 -0.000148197 0)
(-0.00158593 -0.000138594 0)
(-0.00115046 -0.000125191 0)
(-0.000761451 -0.000107892 0)
(-0.000430031 -8.66977e-05 0)
(-0.000166605 -6.17881e-05 0)
(1.9965e-05 -3.37529e-05 0)
(0.000123743 -4.07438e-06 0)
(0.000144914 2.37935e-05 0)
(9.9827e-05 4.1778e-05 0)
(3.21277e-05 3.20602e-05 0)
(-0.0199076 -5.42002e-05 0)
(-0.0197468 -0.00017484 0)
(-0.0194195 -0.000293641 0)
(-0.0189296 -0.000408898 0)
(-0.0182833 -0.000518864 0)
(-0.0174895 -0.000621766 0)
(-0.0165591 -0.000715813 0)
(-0.0155059 -0.000799216 0)
(-0.0143458 -0.000870205 0)
(-0.0130971 -0.000927061 0)
(-0.0117806 -0.000968136 0)
(-0.0104188 -0.000991892 0)
(-0.00903634 -0.000996933 0)
(-0.00765949 -0.00098205 0)
(-0.0063157 -0.000946273 0)
(-0.00503327 -0.000888941 0)
(-0.00384078 -0.000809797 0)
(-0.00276629 -0.000709151 0)
(-0.00183631 -0.000588157 0)
(-0.00107427 -0.000449318 0)
(-0.000498238 -0.000297477 0)
(-0.000117597 -0.000141653 0)
(7.24855e-05 1.65413e-06 0)
(0.000102961 0.000101869 0)
(4.21618e-05 9.98383e-05 0)
(-0.0317279 -0.000153804 0)
(-0.0314766 -0.000489354 0)
(-0.0309674 -0.000819547 0)
(-0.0302065 -0.00113962 0)
(-0.0292037 -0.00144473 0)
(-0.0279724 -0.00172998 0)
(-0.0265302 -0.00199044 0)
(-0.0248979 -0.00222123 0)
(-0.0231003 -0.00241755 0)
(-0.0211656 -0.00257477 0)
(-0.0191254 -0.00268854 0)
(-0.0170141 -0.00275482 0)
(-0.014869 -0.00277008 0)
(-0.0127298 -0.00273136 0)
(-0.0106375 -0.0026365 0)
(-0.00863405 -0.00248433 0)
(-0.00676149 -0.002275 0)
(-0.00506035 -0.00201043 0)
(-0.00356821 -0.00169505 0)
(-0.00231749 -0.001337 0)
(-0.00133239 -0.000950186 0)
(-0.00062484 -0.000557636 0)
(-0.000188774 -0.000196618 0)
(7.10383e-06 7.28315e-05 0)
(2.53648e-05 0.000146516 0)
(-0.0427063 -0.000296272 0)
(-0.0423751 -0.000935021 0)
(-0.0417057 -0.00156332 0)
(-0.0407062 -0.00217212 0)
(-0.0393896 -0.00275225 0)
(-0.0377735 -0.00329445 0)
(-0.0358807 -0.00378945 0)
(-0.0337384 -0.00422812 0)
(-0.0313786 -0.0046015 0)
(-0.0288379 -0.00490105 0)
(-0.026157 -0.00511873 0)
(-0.0233802 -0.00524727 0)
(-0.0205554 -0.00528035 0)
(-0.0177329 -0.0052129 0)
(-0.0149649 -0.00504146 0)
(-0.0123044 -0.00476457 0)
(-0.00980397 -0.00438342 0)
(-0.00751394 -0.00390262 0)
(-0.00548067 -0.00333148 0)
(-0.00374389 -0.00268584 0)
(-0.00233369 -0.001991 0)
(-0.00126625 -0.00128608 0)
(-0.000538804 -0.000630037 0)
(-0.000129791 -0.000110761 0)
(-5.90675e-07 0.000130294 0)
(-0.0529966 -0.00047518 0)
(-0.0525947 -0.0014918 0)
(-0.0517833 -0.00249156 0)
(-0.0505721 -0.00346015 0)
(-0.0489767 -0.00438304 0)
(-0.0470183 -0.00524565 0)
(-0.044724 -0.00603343 0)
(-0.0421265 -0.00673204 0)
(-0.0392639 -0.00732754 0)
(-0.0361796 -0.00780665 0)
(-0.032922 -0.00815699 0)
(-0.0295437 -0.00836746 0)
(-0.0261012 -0.00842856 0)
(-0.0226538 -0.00833289 0)
(-0.019263 -0.00807566 0)
(-0.0159906 -0.00765539 0)
(-0.0128981 -0.00707479 0)
(-0.0100442 -0.00634193 0)
(-0.00748287 -0.00547193 0)
(-0.00526095 -0.00448927 0)
(-0.00341523 -0.0034312 0)
(-0.00196845 -0.00235262 0)
(-0.000925167 -0.00133202 0)
(-0.000280047 -0.000480196 0)
(-2.81846e-05 3.54903e-05 0)
(-0.0627312 -0.000686264 0)
(-0.0622669 -0.00214832 0)
(-0.0613289 -0.00358601 0)
(-0.0599281 -0.0049789 0)
(-0.0580823 -0.00630629 0)
(-0.0558157 -0.00754742 0)
(-0.053159 -0.00868166 0)
(-0.0501494 -0.00968868 0)
(-0.0468301 -0.0105488 0)
(-0.0432503 -0.0112435 0)
(-0.0394646 -0.0117552 0)
(-0.0355327 -0.0120687 0)
(-0.0315183 -0.0121709 0)
(-0.0274884 -0.0120519 0)
(-0.023512 -0.0117055 0)
(-0.0196592 -0.0111302 0)
(-0.0159989 -0.0103306 0)
(-0.0125976 -0.00931855 0)
(-0.00951667 -0.0081153 0)
(-0.0068106 -0.00675405 0)
(-0.00452415 -0.00528357 0)
(-0.00268881 -0.00377302 0)
(-0.00131942 -0.00231739 0)
(-0.000430596 -0.00104496 0)
(-5.46064e-05 -0.000139217 0)
(-0.072023 -0.000925005 0)
(-0.0715039 -0.00289399 0)
(-0.0704523 -0.00483026 0)
(-0.0688802 -0.0067065 0)
(-0.0668072 -0.00849516 0)
(-0.0642598 -0.0101686 0)
(-0.0612717 -0.0116994 0)
(-0.0578837 -0.0130607 0)
(-0.0541432 -0.0142264 0)
(-0.0501043 -0.0151718 0)
(-0.045827 -0.0158743 0)
(-0.0413768 -0.0163135 0)
(-0.0368235 -0.0164727 0)
(-0.032241 -0.016339 0)
(-0.0277051 -0.0159047 0)
(-0.0232929 -0.0151684 0)
(-0.0190808 -0.0141363 0)
(-0.0151428 -0.0128241 0)
(-0.011548 -0.0112588 0)
(-0.00835931 -0.00948193 0)
(-0.00563078 -0.00755267 0)
(-0.00340445 -0.00555243 0)
(-0.00170746 -0.00358948 0)
(-0.000575886 -0.00180478 0)
(-7.90115e-05 -0.000390896 0)
(-0.0809673 -0.00118667 0)
(-0.0804004 -0.00371908 0)
(-0.0792465 -0.00620976 0)
(-0.0775186 -0.00862401 0)
(-0.0752374 -0.0109268 0)
(-0.0724313 -0.0130831 0)
(-0.0691363 -0.015058 0)
(-0.0653962 -0.0168175 0)
(-0.0612619 -0.0183285 0)
(-0.0567915 -0.01956 0)
(-0.0520496 -0.0204832 0)
(-0.0471065 -0.0210727 0)
(-0.0420379 -0.0213072 0)
(-0.0369233 -0.0211709 0)
(-0.0318452 -0.020654 0)
(-0.0268875 -0.0197549 0)
(-0.0221337 -0.0184811 0)
(-0.0176656 -0.0168517 0)
(-0.0135607 -0.014899 0)
(-0.00989101 -0.0126718 0)
(-0.00672127 -0.0102382 0)
(-0.00410534 -0.00768994 0)
(-0.00208378 -0.00514556 0)
(-0.000714307 -0.00275501 0)
(-0.000101388 -0.000715459 0)
(-0.0896433 -0.00146637 0)
(-0.0890354 -0.00461479 0)
(-0.0877894 -0.0077121 0)
(-0.0859189 -0.0107157 0)
(-0.0834454 -0.0135827 0)
(-0.0803986 -0.0162699 0)
(-0.0768165 -0.0187348 0)
(-0.0727451 -0.0209354 0)
(-0.0682381 -0.0228314 0)
(-0.0633571 -0.0243845 0)
(-0.0581703 -0.0255597 0)
(-0.0527528 -0.0263256 0)
(-0.0471851 -0.0266564 0)
(-0.0415523 -0.0265321 0)
(-0.0359431 -0.025941 0)
(-0.0304481 -0.0248803 0)
(-0.0251583 -0.0233586 0)
(-0.0201636 -0.0213974 0)
(-0.0155505 -0.0190335 0)
(-0.0114012 -0.0163219 0)
(-0.0077919 -0.0133381 0)
(-0.0047892 -0.0101821 0)
(-0.00244768 -0.00698048 0)
(-0.000846205 -0.00388961 0)
(-0.000122052 -0.00110887 0)
(-0.0981156 -0.00175897 0)
(-0.0974734 -0.00557294 0)
(-0.0961448 -0.00932628 0)
(-0.0941434 -0.0129681 0)
(-0.0914913 -0.0164472 0)
(-0.0882193 -0.0197121 0)
(-0.0843664 -0.0227117 0)
(-0.0799804 -0.0253961 0)
(-0.0751175 -0.0277168 0)
(-0.0698418 -0.0296281 0)
(-0.064225 -0.0310878 0)
(-0.0583462 -0.0320582 0)
(-0.0522904 -0.0325081 0)
(-0.0461483 -0.0324132 0)
(-0.0400145 -0.0317586 0)
(-0.0339865 -0.03054 0)
(-0.028163 -0.0287659 0)
(-0.0226426 -0.0264597 0)
(-0.0175215 -0.0236614 0)
(-0.0128929 -0.020431 0)
(-0.00884516 -0.01685 0)
(-0.00545829 -0.013025 0)
(-0.0028011 -0.00908891 0)
(-0.000972833 -0.0052029 0)
(-0.000141415 -0.00156774 0)
(-0.106435 -0.00205894 0)
(-0.105766 -0.00658554 0)
(-0.104363 -0.0110421 0)
(-0.102242 -0.0153692 0)
(-0.0994241 -0.0195069 0)
(-0.0959403 -0.023395 0)
(-0.0918307 -0.0269737 0)
(-0.0871445 -0.0301844 0)
(-0.0819394 -0.0329703 0)
(-0.0762818 -0.0352773 0)
(-0.0702464 -0.0370555 0)
(-0.0639159 -0.0382605 0)
(-0.0573797 -0.0388545 0)
(-0.0507336 -0.0388084 0)
(-0.0440784 -0.0381032 0)
(-0.0375186 -0.0367321 0)
(-0.0311611 -0.0347028 0)
(-0.0251137 -0.032039 0)
(-0.019483 -0.0287833 0)
(-0.0143737 -0.024999 0)
(-0.00988726 -0.0207725 0)
(-0.0061174 -0.0162157 0)
(-0.00314727 -0.0114667 0)
(-0.00109583 -0.00669051 0)
(-0.000159895 -0.00208957 0)
(-0.11464 -0.00236035 0)
(-0.11395 -0.00764456 0)
(-0.112484 -0.0128497 0)
(-0.110253 -0.0179075 0)
(-0.107281 -0.0227492 0)
(-0.103598 -0.0273055 0)
(-0.0992454 -0.0315076 0)
(-0.0942717 -0.0352876 0)
(-0.0887366 -0.0385797 0)
(-0.0827082 -0.0413212 0)
(-0.0762638 -0.0434539 0)
(-0.0694891 -0.0449253 0)
(-0.0624778 -0.0456907 0)
(-0.0553309 -0.0457148 0)
(-0.0481552 -0.0449739 0)
(-0.0410628 -0.0434575 0)
(-0.034169 -0.041171 0)
(-0.0275912 -0.0381379 0)
(-0.0214472 -0.0344015 0)
(-0.015854 -0.0300276 0)
(-0.0109264 -0.0251062 0)
(-0.00677263 -0.0197533 0)
(-0.00349006 -0.0141115 0)
(-0.00121694 -0.00834982 0)
(-0.000177887 -0.00267281 0)
(-0.122755 -0.00265676 0)
(-0.122053 -0.00874165 0)
(-0.120532 -0.014739 0)
(-0.118203 -0.0205717 0)
(-0.115089 -0.0261618 0)
(-0.11122 -0.0314309 0)
(-0.106637 -0.0363005 0)
(-0.101389 -0.0406933 0)
(-0.0955354 -0.044534 0)
(-0.0891467 -0.0477503 0)
(-0.082302 -0.0502749 0)
(-0.0750898 -0.0520467 0)
(-0.0676079 -0.053013 0)
(-0.0599622 -0.0531313 0)
(-0.0522659 -0.0523715 0)
(-0.0446384 -0.0507187 0)
(-0.0372042 -0.0481746 0)
(-0.0300909 -0.0447609 0)
(-0.023428 -0.0405206 0)
(-0.0173453 -0.0355207 0)
(-0.0119719 -0.0298538 0)
(-0.00743065 -0.0236393 0)
(-0.00383353 -0.0170237 0)
(-0.00133792 -0.0101802 0)
(-0.00019575 -0.00331689 0)
(-0.130794 -0.00294121 0)
(-0.130088 -0.00986793 0)
(-0.128521 -0.0166995 0)
(-0.126107 -0.0233499 0)
(-0.122864 -0.0297321 0)
(-0.118823 -0.0357579 0)
(-0.114022 -0.0413394 0)
(-0.108513 -0.0463892 0)
(-0.102354 -0.0508217 0)
(-0.0956168 -0.0545548 0)
(-0.0883811 -0.057511 0)
(-0.0807385 -0.0596195 0)
(-0.0727905 -0.0608186 0)
(-0.0646479 -0.0610572 0)
(-0.0564301 -0.0602979 0)
(-0.0482645 -0.0585194 0)
(-0.0402847 -0.0557188 0)
(-0.0326292 -0.0519143 0)
(-0.0254397 -0.0471473 0)
(-0.0188598 -0.0414848 0)
(-0.0130333 -0.0350208 0)
(-0.00809826 -0.0278777 0)
(-0.00418172 -0.0202059 0)
(-0.00146044 -0.012183 0)
(-0.000213811 -0.00402215 0)
(-0.138755 -0.0032062 0)
(-0.138054 -0.0110138 0)
(-0.136454 -0.0187198 0)
(-0.133966 -0.0262293 0)
(-0.130609 -0.033446 0)
(-0.12641 -0.0402723 0)
(-0.121409 -0.04661 0)
(-0.115654 -0.0523614 0)
(-0.109205 -0.0574304 0)
(-0.102131 -0.0617238 0)
(-0.0945153 -0.0651533 0)
(-0.0864509 -0.0676375 0)
(-0.0780425 -0.0691039 0)
(-0.0694055 -0.069492 0)
(-0.060666 -0.0687552 0)
(-0.0519589 -0.0668644 0)
(-0.0434277 -0.0638102 0)
(-0.0352221 -0.059606 0)
(-0.0274968 -0.0542902 0)
(-0.0204096 -0.0479285 0)
(-0.0141201 -0.0406154 0)
(-0.00878215 -0.0324756 0)
(-0.00453858 -0.0236635 0)
(-0.0015861 -0.0143617 0)
(-0.000232367 -0.00478977 0)
(-0.146626 -0.00344372 0)
(-0.145939 -0.0121688 0)
(-0.144318 -0.0207872 0)
(-0.141771 -0.0291954 0)
(-0.138316 -0.037288 0)
(-0.133978 -0.0449574 0)
(-0.128794 -0.0520956 0)
(-0.122811 -0.0585939 0)
(-0.116088 -0.064345 0)
(-0.108694 -0.0692442 0)
(-0.100712 -0.0731912 0)
(-0.0922371 -0.0760926 0)
(-0.0833761 -0.0778642 0)
(-0.0742494 -0.0784339 0)
(-0.0649889 -0.0777448 0)
(-0.0557377 -0.075758 0)
(-0.0466491 -0.072456 0)
(-0.0378848 -0.0678454 0)
(-0.0296128 -0.0619601 0)
(-0.0220064 -0.054863 0)
(-0.0152414 -0.0466484 0)
(-0.0094888 -0.0374427 0)
(-0.00490786 -0.0274042 0)
(-0.0017164 -0.0167213 0)
(-0.000251691 -0.00562174 0)
(-0.154379 -0.00364533 0)
(-0.153717 -0.0133215 0)
(-0.152088 -0.0228877 0)
(-0.149499 -0.032232 0)
(-0.145963 -0.0412398 0)
(-0.141506 -0.0497942 0)
(-0.136161 -0.0577766 0)
(-0.129972 -0.0650673 0)
(-0.122997 -0.0715474 0)
(-0.115303 -0.0770995 0)
(-0.106972 -0.0816105 0)
(-0.098101 -0.0849738 0)
(-0.0887987 -0.0870919 0)
(-0.0791894 -0.0878795 0)
(-0.0694109 -0.0872672 0)
(-0.0596143 -0.0852045 0)
(-0.0499631 -0.0816635 0)
(-0.040631 -0.0766426 0)
(-0.0318007 -0.070169 0)
(-0.0236612 -0.0623016 0)
(-0.0164061 -0.0531331 0)
(-0.0102244 -0.0427914 0)
(-0.00529314 -0.0314384 0)
(-0.00185275 -0.0192691 0)
(-0.00027204 -0.00652084 0)
(-0.161972 -0.0038022 0)
(-0.161345 -0.0144595 0)
(-0.159724 -0.0250055 0)
(-0.15711 -0.0353202 0)
(-0.153517 -0.0452805 0)
(-0.148964 -0.0547599 0)
(-0.143483 -0.0636294 0)
(-0.137115 -0.0717582 0)
(-0.129913 -0.0790147 0)
(-0.121943 -0.0852687 0)
(-0.113287 -0.090393 0)
(-0.104039 -0.0942663 0)
(-0.0943112 -0.096776 0)
(-0.0842304 -0.0978221 0)
(-0.0739401 -0.0973202 0)
(-0.0635992 -0.0952062 0)
(-0.0533813 -0.0914397 0)
(-0.0434731 -0.0860081 0)
(-0.034072 -0.0789303 0)
(-0.0253843 -0.0702594 0)
(-0.0176223 -0.0600854 0)
(-0.0109948 -0.0485365 0)
(-0.00569786 -0.0357786 0)
(-0.00199654 -0.0220139 0)
(-0.000293657 -0.00749052 0)
(-0.169345 -0.00390534 0)
(-0.168766 -0.0155693 0)
(-0.167168 -0.0271229 0)
(-0.164551 -0.0384388 0)
(-0.160925 -0.0493856 0)
(-0.156305 -0.0598277 0)
(-0.150718 -0.0696259 0)
(-0.144202 -0.0786376 0)
(-0.136806 -0.0867189 0)
(-0.128592 -0.0937254 0)
(-0.119638 -0.0995148 0)
(-0.11004 -0.10395 0)
(-0.0999076 -0.106901 0)
(-0.0893716 -0.108251 0)
(-0.07858 -0.107899 0)
(-0.0676992 -0.105764 0)
(-0.0569131 -0.10179 0)
(-0.0464214 -0.0959523 0)
(-0.0364373 -0.0882582 0)
(-0.0271853 -0.0787533 0)
(-0.0188981 -0.067523 0)
(-0.0118056 -0.0546953 0)
(-0.00612535 -0.0404397 0)
(-0.00214907 -0.024966 0)
(-0.000316781 -0.00853495 0)
(-0.176425 -0.00394575 0)
(-0.175905 -0.0166364 0)
(-0.174348 -0.0292204 0)
(-0.171752 -0.0415635 0)
(-0.168121 -0.0535268 0)
(-0.163466 -0.0649662 0)
(-0.15781 -0.0757321 0)
(-0.151184 -0.0856709 0)
(-0.143632 -0.0946252 0)
(-0.135212 -0.102436 0)
(-0.125998 -0.108945 0)
(-0.116082 -0.113997 0)
(-0.105574 -0.117444 0)
(-0.0946054 -0.11915 0)
(-0.0833287 -0.118993 0)
(-0.0719171 -0.116874 0)
(-0.0605646 -0.112718 0)
(-0.0494841 -0.106484 0)
(-0.0389055 -0.098167 0)
(-0.0290729 -0.0878008 0)
(-0.0202407 -0.0754655 0)
(-0.0126624 -0.0612872 0)
(-0.00657885 -0.0454386 0)
(-0.00231166 -0.0281377 0)
(-0.000341651 -0.00965898 0)
(-0.183117 -0.00391466 0)
(-0.182668 -0.0176456 0)
(-0.181172 -0.0312761 0)
(-0.178622 -0.0446666 0)
(-0.175018 -0.0576714 0)
(-0.170367 -0.0701382 0)
(-0.164684 -0.081908 0)
(-0.157993 -0.0928158 0)
(-0.150332 -0.102691 0)
(-0.141753 -0.111359 0)
(-0.132324 -0.118645 0)
(-0.122132 -0.124374 0)
(-0.111286 -0.128377 0)
(-0.0999166 -0.130496 0)
(-0.0881784 -0.130587 0)
(-0.0762512 -0.128528 0)
(-0.0643386 -0.124224 0)
(-0.0526673 -0.117612 0)
(-0.0414844 -0.10867 0)
(-0.0310549 -0.0974206 0)
(-0.0216572 -0.083934 0)
(-0.0135703 -0.0683335 0)
(-0.00706161 -0.0507942 0)
(-0.00248565 -0.0315425 0)
(-0.000368513 -0.0108681 0)
(-0.189307 -0.00380391 0)
(-0.188942 -0.0185806 0)
(-0.187527 -0.0332664 0)
(-0.185053 -0.0477172 0)
(-0.181513 -0.0617818 0)
(-0.176909 -0.0753007 0)
(-0.171247 -0.0881063 0)
(-0.164545 -0.100022 0)
(-0.156832 -0.110865 0)
(-0.148151 -0.120444 0)
(-0.138563 -0.128566 0)
(-0.128148 -0.135035 0)
(-0.117012 -0.139661 0)
(-0.105281 -0.142258 0)
(-0.0931141 -0.142659 0)
(-0.0806941 -0.140714 0)
(-0.0682341 -0.136303 0)
(-0.0559744 -0.129339 0)
(-0.0441802 -0.11978 0)
(-0.0331386 -0.107631 0)
(-0.0231543 -0.0929507 0)
(-0.0145349 -0.0758573 0)
(-0.00757695 -0.0565275 0)
(-0.00267241 -0.0351959 0)
(-0.000397628 -0.0121686 0)
(-0.194861 -0.00360629 0)
(-0.194591 -0.0194248 0)
(-0.19328 -0.0351653 0)
(-0.190912 -0.0506807 0)
(-0.187478 -0.0658154 0)
(-0.18297 -0.0804043 0)
(-0.177386 -0.0942716 0)
(-0.170736 -0.107231 0)
(-0.163036 -0.119085 0)
(-0.154322 -0.129629 0)
(-0.144642 -0.138648 0)
(-0.134071 -0.145925 0)
(-0.122704 -0.151244 0)
(-0.110666 -0.154394 0)
(-0.0981131 -0.155175 0)
(-0.0852327 -0.153409 0)
(-0.0722459 -0.148944 0)
(-0.0594061 -0.141666 0)
(-0.0469973 -0.131507 0)
(-0.0353305 -0.118449 0)
(-0.0247387 -0.102538 0)
(-0.0155614 -0.0838836 0)
(-0.00812834 -0.0626614 0)
(-0.00287343 -0.0391148 0)
(-0.00042928 -0.0135674 0)
(-0.19962 -0.00331601 0)
(-0.199457 -0.0201614 0)
(-0.198271 -0.0369451 0)
(-0.196045 -0.0535188 0)
(-0.192762 -0.0697244 0)
(-0.188405 -0.0853922 0)
(-0.182965 -0.10034 0)
(-0.176438 -0.114372 0)
(-0.16883 -0.127279 0)
(-0.160163 -0.138838 0)
(-0.150475 -0.148817 0)
(-0.139825 -0.156974 0)
(-0.128303 -0.163065 0)
(-0.116025 -0.166849 0)
(-0.103143 -0.168093 0)
(-0.0898468 -0.166582 0)
(-0.0763637 -0.16213 0)
(-0.0629601 -0.154588 0)
(-0.0499388 -0.143857 0)
(-0.0376363 -0.129893 0)
(-0.0264169 -0.112721 0)
(-0.0166556 -0.0924385 0)
(-0.00871953 -0.0692207 0)
(-0.00309033 -0.0433178 0)
(-0.00046379 -0.0150723 0)
(-0.203403 -0.00292917 0)
(-0.203355 -0.0207738 0)
(-0.202319 -0.0385765 0)
(-0.200271 -0.0561899 0)
(-0.197188 -0.0734553 0)
(-0.193046 -0.0902006 0)
(-0.187822 -0.106239 0)
(-0.181502 -0.121365 0)
(-0.174076 -0.13536 0)
(-0.165551 -0.147984 0)
(-0.155951 -0.158985 0)
(-0.14532 -0.168097 0)
(-0.133734 -0.175045 0)
(-0.121299 -0.179554 0)
(-0.108161 -0.181354 0)
(-0.0945081 -0.180189 0)
(-0.0805717 -0.175832 0)
(-0.0666301 -0.168092 0)
(-0.0530055 -0.156832 0)
(-0.0400612 -0.141975 0)
(-0.0281958 -0.12352 0)
(-0.0178235 -0.10155 0)
(-0.00935468 -0.0762325 0)
(-0.00332495 -0.0478258 0)
(-0.000501531 -0.016692 0)
(-0.206001 -0.00244437 0)
(-0.206076 -0.0212458 0)
(-0.205212 -0.0400288 0)
(-0.203382 -0.058649 0)
(-0.200554 -0.0769494 0)
(-0.196694 -0.0947578 0)
(-0.191769 -0.111884 0)
(-0.185749 -0.128118 0)
(-0.178608 -0.143229 0)
(-0.170337 -0.156963 0)
(-0.160938 -0.169048 0)
(-0.150441 -0.179191 0)
(-0.138902 -0.187086 0)
(-0.126414 -0.192422 0)
(-0.113112 -0.194884 0)
(-0.0991786 -0.194172 0)
(-0.0848473 -0.190009 0)
(-0.0704062 -0.182156 0)
(-0.0561966 -0.170427 0)
(-0.04261 -0.154706 0)
(-0.0300822 -0.13496 0)
(-0.019072 -0.111246 0)
(-0.0100386 -0.0837259 0)
(-0.00357946 -0.0526614 0)
(-0.00054294 -0.018436 0)
(-0.20718 -0.00186323 0)
(-0.207383 -0.0215628 0)
(-0.206714 -0.0412707 0)
(-0.205141 -0.0608481 0)
(-0.202626 -0.0801428 0)
(-0.199123 -0.0989849 0)
(-0.194588 -0.117184 0)
(-0.188972 -0.134526 0)
(-0.182234 -0.150772 0)
(-0.174343 -0.165654 0)
(-0.16528 -0.17888 0)
(-0.155052 -0.190133 0)
(-0.143693 -0.199072 0)
(-0.131278 -0.205344 0)
(-0.117926 -0.20859 0)
(-0.103809 -0.208455 0)
(-0.0891596 -0.204605 0)
(-0.0742731 -0.196744 0)
(-0.0595085 -0.18463 0)
(-0.0452866 -0.168094 0)
(-0.032084 -0.14706 0)
(-0.020409 -0.121557 0)
(-0.0107768 -0.0917326 0)
(-0.00385641 -0.0578501 0)
(-0.000588553 -0.0203155 0)
(-0.206674 -0.00119102 0)
(-0.207008 -0.0217117 0)
(-0.206555 -0.0422704 0)
(-0.205281 -0.0627371 0)
(-0.203139 -0.0829669 0)
(-0.200075 -0.102796 0)
(-0.196027 -0.122035 0)
(-0.190932 -0.140471 0)
(-0.184729 -0.157858 0)
(-0.177361 -0.173917 0)
(-0.168787 -0.188339 0)
(-0.158986 -0.200777 0)
(-0.147966 -0.21086 0)
(-0.135775 -0.218189 0)
(-0.122513 -0.222353 0)
(-0.108336 -0.222939 0)
(-0.0934683 -0.219546 0)
(-0.0782097 -0.211808 0)
(-0.0629349 -0.199415 0)
(-0.0480947 -0.182136 0)
(-0.0342095 -0.159839 0)
(-0.0218434 -0.132515 0)
(-0.011576 -0.100287 0)
(-0.00415895 -0.0634202 0)
(-0.00063903 -0.0223427 0)
(-0.204193 -0.000437228 0)
(-0.204655 -0.021682 0)
(-0.204439 -0.0429971 0)
(-0.203504 -0.0642642 0)
(-0.201798 -0.0853493 0)
(-0.199256 -0.106097 0)
(-0.195802 -0.126326 0)
(-0.191356 -0.145823 0)
(-0.185832 -0.164342 0)
(-0.17915 -0.181595 0)
(-0.171239 -0.197255 0)
(-0.162047 -0.210954 0)
(-0.15155 -0.222282 0)
(-0.139766 -0.230797 0)
(-0.126764 -0.23603 0)
(-0.112678 -0.2375 0)
(-0.0977205 -0.234732 0)
(-0.082187 -0.227279 0)
(-0.0664658 -0.214747 0)
(-0.0510372 -0.196825 0)
(-0.0364686 -0.173313 0)
(-0.0233864 -0.144149 0)
(-0.0124446 -0.109427 0)
(-0.00449102 -0.0694036 0)
(-0.000695206 -0.0245319 0)
(-0.199414 0.000384012 0)
(-0.199999 -0.0214664 0)
(-0.200035 -0.0434212 0)
(-0.19948 -0.0653773 0)
(-0.198274 -0.0872148 0)
(-0.196341 -0.108791 0)
(-0.193594 -0.129935 0)
(-0.189931 -0.150441 0)
(-0.185245 -0.170063 0)
(-0.179427 -0.188509 0)
(-0.172375 -0.205441 0)
(-0.164001 -0.220465 0)
(-0.154243 -0.23314 0)
(-0.143079 -0.242975 0)
(-0.130542 -0.249441 0)
(-0.116736 -0.251983 0)
(-0.101848 -0.250038 0)
(-0.0861664 -0.243064 0)
(-0.0700864 -0.230567 0)
(-0.0541161 -0.212139 0)
(-0.0388723 -0.187492 0)
(-0.0250514 -0.156494 0)
(-0.013393 -0.119194 0)
(-0.00485758 -0.0758368 0)
(-0.000758155 -0.0268998 0)
(-0.191986 0.00125355 0)
(-0.192683 -0.0210613 0)
(-0.192985 -0.0435158 0)
(-0.192846 -0.0660252 0)
(-0.192203 -0.0884873 0)
(-0.190969 -0.110776 0)
(-0.189043 -0.132736 0)
(-0.186307 -0.154171 0)
(-0.182628 -0.174844 0)
(-0.17787 -0.194464 0)
(-0.171893 -0.212681 0)
(-0.164571 -0.229086 0)
(-0.155798 -0.243204 0)
(-0.145504 -0.254497 0)
(-0.133678 -0.262373 0)
(-0.120379 -0.266194 0)
(-0.105762 -0.265302 0)
(-0.0900959 -0.259042 0)
(-0.0737751 -0.246799 0)
(-0.0573318 -0.228046 0)
(-0.0414339 -0.202381 0)
(-0.026855 -0.169581 0)
(-0.0144344 -0.129634 0)
(-0.00526509 -0.082762 0)
(-0.000829281 -0.0294657 0)
(-0.181532 0.00214713 0)
(-0.182325 -0.0204679 0)
(-0.182901 -0.0432579 0)
(-0.183212 -0.0661593 0)
(-0.18319 -0.0890916 0)
(-0.182742 -0.11195 0)
(-0.181755 -0.134597 0)
(-0.180091 -0.156855 0)
(-0.177597 -0.178499 0)
(-0.174106 -0.199243 0)
(-0.169441 -0.218738 0)
(-0.163432 -0.23656 0)
(-0.155922 -0.252206 0)
(-0.146789 -0.265094 0)
(-0.135961 -0.274566 0)
(-0.123445 -0.279898 0)
(-0.109349 -0.280321 0)
(-0.093906 -0.275052 0)
(-0.0775009 -0.263334 0)
(-0.0606821 -0.244488 0)
(-0.0441684 -0.217973 0)
(-0.0288182 -0.183443 0)
(-0.0155857 -0.1408 0)
(-0.00572198 -0.0902285 0)
(-0.000910452 -0.0322531 0)
(-0.167647 0.00303557 0)
(-0.168517 -0.0196924 0)
(-0.169368 -0.0426293 0)
(-0.170156 -0.0657358 0)
(-0.170809 -0.0889563 0)
(-0.17123 -0.112211 0)
(-0.171294 -0.135386 0)
(-0.17085 -0.158328 0)
(-0.169722 -0.180828 0)
(-0.167714 -0.202618 0)
(-0.164613 -0.223353 0)
(-0.1602 -0.242603 0)
(-0.154266 -0.259845 0)
(-0.146622 -0.274456 0)
(-0.137131 -0.285715 0)
(-0.125729 -0.292806 0)
(-0.112458 -0.294841 0)
(-0.0975026 -0.29089 0)
(-0.0812188 -0.280026 0)
(-0.0641604 -0.261387 0)
(-0.0470932 -0.23425 0)
(-0.030967 -0.19811 0)
(-0.0168691 -0.152749 0)
(-0.00623944 -0.0982953 0)
(-0.00100419 -0.0352906 0)
(-0.149905 0.00388534 0)
(-0.150827 -0.0187463 0)
(-0.151951 -0.0416182 0)
(-0.153235 -0.0647178 0)
(-0.154608 -0.0880169 0)
(-0.155971 -0.111464 0)
(-0.157191 -0.134976 0)
(-0.158107 -0.158426 0)
(-0.158524 -0.181633 0)
(-0.158218 -0.204351 0)
(-0.156942 -0.226249 0)
(-0.15443 -0.246904 0)
(-0.150411 -0.265781 0)
(-0.144628 -0.282226 0)
(-0.136863 -0.295458 0)
(-0.126965 -0.30457 0)
(-0.114893 -0.308547 0)
(-0.100757 -0.306292 0)
(-0.0848631 -0.296679 0)
(-0.0677519 -0.278624 0)
(-0.0502272 -0.251172 0)
(-0.0333343 -0.213609 0)
(-0.0183136 -0.16555 0)
(-0.00683259 -0.107033 0)
(-0.00111398 -0.0386134 0)
(-0.127864 0.00465965 0)
(-0.128808 -0.0176467 0)
(-0.130194 -0.0402206 0)
(-0.131985 -0.0630776 0)
(-0.134111 -0.0862196 0)
(-0.136475 -0.109627 0)
(-0.138943 -0.133249 0)
(-0.141344 -0.156994 0)
(-0.143473 -0.180715 0)
(-0.145084 -0.204198 0)
(-0.145896 -0.227138 0)
(-0.145599 -0.249131 0)
(-0.14386 -0.269643 0)
(-0.140348 -0.288001 0)
(-0.13475 -0.303375 0)
(-0.126815 -0.314773 0)
(-0.116394 -0.321047 0)
(-0.103492 -0.32092 0)
(-0.0883365 -0.313034 0)
(-0.0714275 -0.296033 0)
(-0.053589 -0.268674 0)
(-0.0359611 -0.22996 0)
(-0.0199577 -0.179279 0)
(-0.00752206 -0.11653 0)
(-0.0012447 -0.0422663 0)
(-0.10107 0.00532012 0)
(-0.102005 -0.0164158 0)
(-0.103636 -0.0384412 0)
(-0.10593 -0.0608001 0)
(-0.108827 -0.0835256 0)
(-0.112233 -0.106632 0)
(-0.116017 -0.130105 0)
(-0.120009 -0.153893 0)
(-0.123996 -0.177891 0)
(-0.12772 -0.201924 0)
(-0.130873 -0.225731 0)
(-0.133104 -0.248936 0)
(-0.134024 -0.271028 0)
(-0.133221 -0.291331 0)
(-0.130286 -0.308985 0)
(-0.124843 -0.322922 0)
(-0.116611 -0.331866 0)
(-0.10546 -0.334347 0)
(-0.091494 -0.328745 0)
(-0.0751339 -0.313382 0)
(-0.0571937 -0.286647 0)
(-0.0388975 -0.247172 0)
(-0.0218523 -0.194025 0)
(-0.00833656 -0.126894 0)
(-0.00140338 -0.046307 0)
(-0.0690664 0.00582899 0)
(-0.0699598 -0.0150805 0)
(-0.0718103 -0.0362945 0)
(-0.0745943 -0.057885 0)
(-0.0782596 -0.0799159 0)
(-0.0827223 -0.102436 0)
(-0.0878619 -0.125471 0)
(-0.093516 -0.149012 0)
(-0.0994744 -0.173001 0)
(-0.105474 -0.197318 0)
(-0.111193 -0.22175 0)
(-0.116249 -0.245974 0)
(-0.120204 -0.269519 0)
(-0.122571 -0.291733 0)
(-0.122833 -0.311746 0)
(-0.120483 -0.328441 0)
(-0.115078 -0.340425 0)
(-0.106312 -0.346033 0)
(-0.0941162 -0.343359 0)
(-0.0787755 -0.330344 0)
(-0.0610443 -0.30492 0)
(-0.0422036 -0.265228 0)
(-0.0240659 -0.209886 0)
(-0.00931669 -0.138263 0)
(-0.00160045 -0.0508115 0)
(-0.0314063 0.00615203 0)
(-0.0322271 -0.0136712 0)
(-0.0342661 -0.0338058 0)
(-0.0375094 -0.0543498 0)
(-0.0419176 -0.0753963 0)
(-0.0474218 -0.0970278 0)
(-0.0539181 -0.119309 0)
(-0.0612604 -0.142278 0)
(-0.0692529 -0.16593 0)
(-0.0776412 -0.190202 0)
(-0.0861034 -0.214951 0)
(-0.0942428 -0.239918 0)
(-0.101584 -0.264699 0)
(-0.107573 -0.288695 0)
(-0.111596 -0.311063 0)
(-0.113002 -0.330667 0)
(-0.111163 -0.346028 0)
(-0.105553 -0.355301 0)
(-0.0958699 -0.356278 0)
(-0.0821853 -0.346464 0)
(-0.0651166 -0.323228 0)
(-0.0459468 -0.28407 0)
(-0.0266897 -0.226971 0)
(-0.010521 -0.150812 0)
(-0.00185183 -0.0558824 0)
(0.0123366 0.00626189 0)
(0.0116153 -0.0122198 0)
(0.00942497 -0.0310111 0)
(0.0057683 -0.0502323 0)
(0.000669024 -0.070002 0)
(-0.00582384 -0.0904338 0)
(-0.0136298 -0.11163 0)
(-0.0226291 -0.133674 0)
(-0.0326527 -0.156617 0)
(-0.0434709 -0.180463 0)
(-0.05478 -0.205143 0)
(-0.0661893 -0.230487 0)
(-0.0772084 -0.25618 0)
(-0.0872402 -0.28171 0)
(-0.0955829 -0.306305 0)
(-0.101448 -0.32886 0)
(-0.104008 -0.347859 0)
(-0.102477 -0.361311 0)
(-0.0962463 -0.366718 0)
(-0.0850747 -0.361104 0)
(-0.0693289 -0.341165 0)
(-0.0501939 -0.303564 0)
(-0.029845 -0.245389 0)
(-0.0120359 -0.164767 0)
(-0.0021828 -0.0616615 0)
(0.0625517 0.00614191 0)
(0.0619499 -0.0107583 0)
(0.0596498 -0.0279575 0)
(0.0556423 -0.0455925 0)
(0.0499332 -0.0638026 0)
(0.0425473 -0.0827271 0)
(0.033535 -0.102502 0)
(0.0229804 -0.123252 0)
(0.0110126 -0.145084 0)
(-0.00218075 -0.16807 0)
(-0.0163362 -0.192226 0)
(-0.0310955 -0.217482 0)
(-0.0459847 -0.243638 0)
(-0.0603945 -0.270307 0)
(-0.0735671 -0.296839 0)
(-0.0845971 -0.322222 0)
(-0.0924588 -0.344978 0)
(-0.0960777 -0.36304 0)
(-0.0944667 -0.373662 0)
(-0.0869513 -0.37338 0)
(-0.0734857 -0.35811 0)
(-0.0549887 -0.323446 0)
(-0.0336896 -0.265231 0)
(-0.0139912 -0.180419 0)
(-0.00263515 -0.0683515 0)
(0.119574 0.00578977 0)
(0.119102 -0.00931651 0)
(0.116737 -0.0247022 0)
(0.112458 -0.0405142 0)
(0.106251 -0.0569054 0)
(0.0981147 -0.0740339 0)
(0.0880637 -0.0920611 0)
(0.0761379 -0.111149 0)
(0.0624142 -0.131453 0)
(0.0470207 -0.153109 0)
(0.030157 -0.176222 0)
(0.0121178 -0.20083 0)
(-0.00667792 -0.226869 0)
(-0.0256544 -0.254112 0)
(-0.0440472 -0.282082 0)
(-0.0608795 -0.309943 0)
(-0.0749592 -0.336348 0)
(-0.0849207 -0.359269 0)
(-0.0893421 -0.375811 0)
(-0.0869829 -0.38207 0)
(-0.0771727 -0.373116 0)
(-0.0602993 -0.343225 0)
(-0.0384178 -0.28652 0)
(-0.0165853 -0.198142 0)
(-0.00328049 -0.0762507 0)
(0.183664 0.00522087 0)
(0.18332 -0.00791952 0)
(0.180936 -0.0213118 0)
(0.17648 -0.0351055 0)
(0.169921 -0.0494584 0)
(0.161226 -0.0645384 0)
(0.150374 -0.0805232 0)
(0.137353 -0.0976004 0)
(0.122178 -0.115964 0)
(0.104903 -0.135809 0)
(0.0856411 -0.157318 0)
(0.0645901 -0.180639 0)
(0.0420702 -0.205854 0)
(0.0185664 -0.232921 0)
(-0.00522011 -0.26159 0)
(-0.028318 -0.291279 0)
(-0.0494418 -0.320896 0)
(-0.0669815 -0.348607 0)
(-0.0790668 -0.371545 0)
(-0.0837764 -0.385512 0)
(-0.079564 -0.384754 0)
(-0.0658994 -0.362017 0)
(-0.0442365 -0.309112 0)
(-0.0201213 -0.218398 0)
(-0.00424508 -0.0858143 0)
(0.254988 0.00447051 0)
(0.254756 -0.00658646 0)
(0.252399 -0.0178614 0)
(0.247878 -0.0294981 0)
(0.241141 -0.0416507 0)
(0.232131 -0.054486 0)
(0.220786 -0.0681864 0)
(0.207043 -0.082952 0)
(0.190849 -0.0990013 0)
(0.172174 -0.11657 0)
(0.151026 -0.135905 0)
(0.127476 -0.157252 0)
(0.101703 -0.180835 0)
(0.0740351 -0.206805 0)
(0.0450245 -0.235172 0)
(0.0155263 -0.265684 0)
(-0.0132067 -0.297632 0)
(-0.0394408 -0.329572 0)
(-0.0609302 -0.35893 0)
(-0.07503 -0.381495 0)
(-0.0790759 -0.3909 0)
(-0.0711128 -0.378274 0)
(-0.051271 -0.332486 0)
(-0.0250516 -0.241711 0)
(-0.00575393 -0.0977611 0)
(0.333592 0.00359421 0)
(0.333444 -0.00532965 0)
(0.331163 -0.0144332 0)
(0.3267 -0.0238468 0)
(0.319991 -0.0337113 0)
(0.310955 -0.0441824 0)
(0.299495 -0.0554343 0)
(0.285499 -0.067664 0)
(0.26885 -0.0810958 0)
(0.249429 -0.0959844 0)
(0.227129 -0.112617 0)
(0.20188 -0.131311 0)
(0.173677 -0.152404 0)
(0.142636 -0.176227 0)
(0.109065 -0.203055 0)
(0.0735655 -0.233006 0)
(0.0371769 -0.265864 0)
(0.00153976 -0.300786 0)
(-0.0309369 -0.335824 0)
(-0.057004 -0.367222 0)
(-0.0727595 -0.38848 0)
(-0.0742784 -0.389363 0)
(-0.0592841 -0.355324 0)
(-0.0319917 -0.268524 0)
(-0.00819915 -0.113242 0)
(0.419386 0.00266546 0)
(0.419285 -0.00415576 0)
(0.417126 -0.0111166 0)
(0.412859 -0.0183268 0)
(0.406409 -0.0259067 0)
(0.397679 -0.0339905 0)
(0.386545 -0.0427321 0)
(0.372856 -0.0523098 0)
(0.356438 -0.0629333 0)
(0.337092 -0.074851 0)
(0.314606 -0.0883575 0)
(0.288761 -0.103801 0)
(0.259358 -0.12159 0)
(0.226255 -0.142185 0)
(0.189436 -0.166083 0)
(0.149114 -0.193759 0)
(0.105893 -0.22554 0)
(0.0610075 -0.261345 0)
(0.0166344 -0.300211 0)
(-0.023773 -0.339448 0)
(-0.0552837 -0.37329 0)
(-0.0716708 -0.390993 0)
(-0.0669125 -0.374741 0)
(-0.0415363 -0.298749 0)
(-0.0121936 -0.134045 0)
(0.512119 0.00176998 0)
(0.512023 -0.00306907 0)
(0.510039 -0.00800839 0)
(0.506118 -0.0131327 0)
(0.500182 -0.0185355 0)
(0.492124 -0.0243225 0)
(0.481806 -0.0306168 0)
(0.469055 -0.0375646 0)
(0.453659 -0.0453421 0)
(0.435361 -0.054165 0)
(0.413865 -0.0642999 0)
(0.388827 -0.0760788 0)
(0.359868 -0.0899151 0)
(0.326591 -0.106322 0)
(0.288618 -0.125924 0)
(0.245675 -0.149458 0)
(0.197731 -0.177724 0)
(0.145252 -0.21144 0)
(0.089612 -0.250871 0)
(0.0336955 -0.295039 0)
(-0.0173565 -0.340117 0)
(-0.0554205 -0.376583 0)
(-0.0697303 -0.384945 0)
(-0.0532976 -0.330658 0)