/*--------------------------------*- C++ -*----------------------------------*\
| =========                 |                                                 |
| \\      /  F ield         | OpenFOAM: The Open Source CFD Toolbox           |
|  \\    /   O peration     | Version:  v2012                                 |
|   \\  /    A nd           | Website:  www.openfoam.com                      |
|    \\/     M anipulation  |                                                 |
\*---------------------------------------------------------------------------*/
FoamFile
{
    version     2.0;
    format      ascii;
    class       surfaceScalarField;
    location    "0.1";
    object      phi;
}
// * * * * * * * * * * * * * * * * * * * * * * * * * * * * * * * * * * * * * //

dimensions      [0 3 -1 0 0 0 0];
oriented        oriented;


internalField   nonuniform List<scalar> 
2425
(
1.16784e-09
-1.16768e-09
2.38521e-09
-1.21737e-09
2.4776e-09
-9.24094e-11
1.01083e-09
1.46678e-09
-2.09425e-09
3.10509e-09
-6.75055e-09
4.65632e-09
-1.27898e-08
6.03926e-09
-2.00067e-08
7.21691e-09
-2.81819e-08
8.17528e-09
-3.70944e-08
8.91243e-09
-4.65274e-08
9.43298e-09
-5.62728e-08
9.74541e-09
-6.61333e-08
9.86051e-09
-7.59237e-08
9.79039e-09
-8.54717e-08
9.54797e-09
-9.46184e-08
9.14668e-09
-1.03219e-07
8.60017e-09
-1.11141e-07
7.92228e-09
-1.18268e-07
7.12693e-09
-1.24496e-07
6.22809e-09
-1.29736e-07
5.23991e-09
-1.33912e-07
4.17663e-09
-1.36965e-07
3.05259e-09
-1.38847e-07
1.88222e-09
6.80386e-10
1.23547e-09
-2.40314e-09
1.42411e-09
-1.4059e-09
-1.16512e-09
2.49689e-09
-7.32696e-09
7.62852e-09
-1.73076e-08
1.30857e-08
-3.09995e-08
1.83482e-08
-4.80808e-08
2.31206e-08
-6.81071e-08
2.72432e-08
-9.05685e-08
3.06368e-08
-1.14926e-07
3.327e-08
-1.40635e-07
3.51415e-08
-1.67158e-07
3.62684e-08
-1.93977e-07
3.66802e-08
-2.20601e-07
3.64144e-08
-2.46567e-07
3.55136e-08
-2.71444e-07
3.40238e-08
-2.94838e-07
3.19935e-08
-3.16388e-07
2.94727e-08
-3.35773e-07
2.65123e-08
-3.5271e-07
2.31644e-08
-3.66951e-07
1.94818e-08
-3.78293e-07
1.55183e-08
-3.86569e-07
1.13283e-08
-3.91654e-07
6.967e-09
2.49167e-09
1.49186e-10
-2.55235e-09
-2.38764e-09
1.13098e-09
-9.26428e-09
9.37352e-09
-2.13057e-08
1.96699e-08
-3.87733e-08
3.05533e-08
-6.15217e-08
4.10966e-08
-8.91259e-08
5.07248e-08
-1.20981e-07
5.90985e-08
-1.56374e-07
6.60296e-08
-1.94532e-07
7.14283e-08
-2.3466e-07
7.52696e-08
-2.75964e-07
7.75722e-08
-3.17668e-07
7.83843e-08
-3.59028e-07
7.77745e-08
-3.9934e-07
7.58253e-08
-4.37945e-07
7.26287e-08
-4.74235e-07
6.82838e-08
-5.07657e-07
6.28942e-08
-5.37712e-07
5.65673e-08
-5.6396e-07
4.94132e-08
-5.86023e-07
4.15446e-08
-6.03582e-07
3.30767e-08
-6.1638e-07
2.41267e-08
-6.24227e-07
1.48141e-08
5.26247e-09
-1.36476e-09
-1.18757e-09
-7.44714e-09
7.21322e-09
-1.94989e-08
2.14253e-08
-3.81519e-08
3.83229e-08
-6.35485e-08
5.59499e-08
-9.54424e-08
7.29905e-08
-1.33297e-07
8.85795e-08
-1.76372e-07
1.02173e-07
-2.23793e-07
1.1345e-07
-2.74605e-07
1.22241e-07
-3.27818e-07
1.28482e-07
-3.82431e-07
1.32185e-07
-4.3746e-07
1.33414e-07
-4.91956e-07
1.3227e-07
-5.45014e-07
1.28883e-07
-5.95784e-07
1.23399e-07
-6.43481e-07
1.1598e-07
-6.87384e-07
1.06798e-07
-7.26847e-07
9.60306e-08
-7.61298e-07
8.3864e-08
-7.90242e-07
7.04885e-08
-8.13264e-07
5.6099e-08
-8.30033e-07
4.08954e-08
-8.40301e-07
2.50816e-08
8.86794e-09
-2.98736e-09
1.79979e-09
-1.29649e-08
1.71906e-08
-3.0635e-08
3.90954e-08
-5.63022e-08
6.39901e-08
-8.98896e-08
8.95374e-08
-1.30988e-07
1.14089e-07
-1.78922e-07
1.36513e-07
-2.32811e-07
1.56063e-07
-2.91636e-07
1.72276e-07
-3.54291e-07
1.84895e-07
-4.19618e-07
1.93809e-07
-4.8645e-07
1.99017e-07
-5.53632e-07
2.00596e-07
-6.20043e-07
1.98682e-07
-6.84613e-07
1.93453e-07
-7.46334e-07
1.8512e-07
-8.0427e-07
1.73916e-07
-8.57562e-07
1.6009e-07
-9.05438e-07
1.43906e-07
-9.47212e-07
1.25638e-07
-9.82294e-07
1.0557e-07
-1.01019e-06
8.39921e-08
-1.03049e-06
6.12029e-08
-1.04292e-06
3.75084e-08
1.32229e-08
-4.58715e-09
6.38693e-09
-1.85364e-08
3.11398e-08
-4.1979e-08
6.2538e-08
-7.4825e-08
9.68361e-08
-1.16714e-07
1.31427e-07
-1.67024e-07
1.64399e-07
-2.24905e-07
1.94394e-07
-2.89326e-07
2.20483e-07
-3.59123e-07
2.42073e-07
-4.33043e-07
2.58815e-07
-5.09787e-07
2.70553e-07
-5.88041e-07
2.77271e-07
-6.66506e-07
2.7906e-07
-7.43917e-07
2.76093e-07
-8.19064e-07
2.68601e-07
-8.90807e-07
2.56863e-07
-9.58083e-07
2.41192e-07
-1.01992e-06
2.21925e-07
-1.07543e-06
1.99421e-07
-1.12385e-06
1.74054e-07
-1.16449e-06
1.46214e-07
-1.1968e-06
1.16299e-07
-1.22032e-06
8.47214e-08
-1.23471e-06
5.19027e-08
1.82762e-08
-6.11355e-09
1.25005e-08
-2.39715e-08
4.89977e-08
-5.31689e-08
9.17354e-08
-9.32032e-08
1.3687e-07
-1.43395e-07
1.81619e-07
-2.02874e-07
2.23878e-07
-2.70587e-07
2.62107e-07
-3.45332e-07
2.95228e-07
-4.25791e-07
3.22532e-07
-5.1057e-07
3.43595e-07
-5.98234e-07
3.58217e-07
-6.87335e-07
3.66373e-07
-7.76447e-07
3.68172e-07
-8.6418e-07
3.63826e-07
-9.49207e-07
3.53627e-07
-1.03027e-06
3.37928e-07
-1.10621e-06
3.17127e-07
-1.17594e-06
2.91659e-07
-1.23851e-06
2.61985e-07
-1.29304e-06
2.28592e-07
-1.33881e-06
1.91982e-07
-1.37519e-06
1.52677e-07
-1.40168e-06
1.1121e-07
-1.41791e-06
6.81322e-08
2.40069e-08
-7.55528e-09
2.00558e-08
-2.92e-08
7.06424e-08
-6.40478e-08
1.26583e-07
-1.11191e-07
1.84014e-07
-1.69619e-07
2.40047e-07
-2.38188e-07
2.92447e-07
-3.15623e-07
3.39541e-07
-4.00531e-07
3.80137e-07
-4.91432e-07
4.13432e-07
-5.86782e-07
4.38945e-07
-6.85011e-07
4.56446e-07
-7.84549e-07
4.6591e-07
-8.83848e-07
4.67471e-07
-9.8141e-07
4.61388e-07
-1.0758e-06
4.48019e-07
-1.16567e-06
4.27797e-07
-1.24976e-06
4.01215e-07
-1.32691e-06
3.68811e-07
-1.39608e-06
3.3116e-07
-1.45636e-06
2.88864e-07
-1.50693e-06
2.42553e-07
-1.54713e-06
1.92876e-07
-1.57642e-06
1.40501e-07
-1.5944e-06
8.6114e-08
3.04201e-08
-8.91846e-09
2.89742e-08
-3.42148e-08
9.59388e-08
-7.45757e-08
1.66944e-07
-1.28709e-07
2.38147e-07
-1.95272e-07
3.06609e-07
-2.72837e-07
3.70012e-07
-3.5989e-07
4.26594e-07
-4.54835e-07
4.75081e-07
-5.56013e-07
5.14611e-07
-6.61729e-07
5.44661e-07
-7.70276e-07
5.64993e-07
-8.79958e-07
5.75592e-07
-9.89117e-07
5.7663e-07
-1.09615e-06
5.68422e-07
-1.19953e-06
5.51401e-07
-1.29783e-06
5.26089e-07
-1.38969e-06
4.93081e-07
-1.47391e-06
4.53026e-07
-1.54937e-06
4.06619e-07
-1.61509e-06
3.54588e-07
-1.67023e-06
2.97694e-07
-1.71408e-06
2.36723e-07
-1.74606e-06
1.72484e-07
-1.76575e-06
1.05807e-07
3.75444e-08
-1.02163e-08
3.91904e-08
-3.90398e-08
1.24762e-07
-8.4777e-08
2.12681e-07
-1.45775e-07
2.99145e-07
-2.20363e-07
3.81198e-07
-3.06829e-07
4.56478e-07
-4.03408e-07
5.23173e-07
-5.08288e-07
5.79961e-07
-6.19626e-07
6.25948e-07
-7.35563e-07
6.60599e-07
-8.54251e-07
6.83681e-07
-9.73871e-07
6.95213e-07
-1.09266e-06
6.95414e-07
-1.20891e-06
6.84672e-07
-1.32101e-06
6.63502e-07
-1.42744e-06
6.32528e-07
-1.52682e-06
5.92452e-07
-1.61783e-06
5.44045e-07
-1.69934e-06
4.88126e-07
-1.77031e-06
4.25559e-07
-1.82986e-06
3.57242e-07
-1.87724e-06
2.84102e-07
-1.91185e-06
2.07095e-07
-1.93324e-06
1.27201e-07
4.5428e-08
-1.14639e-08
5.06543e-08
-4.37128e-08
1.57011e-07
-9.47088e-08
2.63677e-07
-1.62459e-07
3.66895e-07
-2.44976e-07
4.63715e-07
-3.40259e-07
5.51761e-07
-4.46288e-07
6.29202e-07
-5.61026e-07
6.947e-07
-6.82435e-07
7.47358e-07
-8.0849e-07
7.86653e-07
-9.37195e-07
8.12386e-07
-1.06661e-06
8.24624e-07
-1.19485e-06
8.23655e-07
-1.32012e-06
8.09949e-07
-1.44074e-06
7.84122e-07
-1.55512e-06
7.46906e-07
-1.66179e-06
6.99123e-07
-1.75942e-06
6.41672e-07
-1.8468e-06
5.75507e-07
-1.92287e-06
5.0163e-07
-1.98671e-06
4.21082e-07
-2.03755e-06
3.34939e-07
-2.07476e-06
2.44305e-07
-2.09788e-06
1.50317e-07
5.41362e-08
-1.26766e-08
6.33309e-08
-4.82763e-08
1.92611e-07
-1.04443e-07
3.19844e-07
-1.7886e-07
4.41312e-07
-2.6923e-07
5.54085e-07
-3.73266e-07
6.55797e-07
-4.88687e-07
7.44623e-07
-6.13228e-07
8.1924e-07
-7.44647e-07
8.78777e-07
-8.80745e-07
9.22751e-07
-1.01938e-06
9.51017e-07
-1.15847e-06
9.63716e-07
-1.29604e-06
9.61223e-07
-1.4302e-06
9.4411e-07
-1.55918e-06
9.13104e-07
-1.68133e-06
8.69061e-07
-1.79515e-06
8.12935e-07
-1.89923e-06
7.45759e-07
-1.99235e-06
6.68629e-07
-2.07342e-06
5.82692e-07
-2.14147e-06
4.89137e-07
-2.19572e-06
3.8919e-07
-2.23553e-06
2.84111e-07
-2.2604e-06
1.7519e-07
6.37491e-08
-1.38684e-08
7.71993e-08
-5.27732e-08
2.31516e-07
-1.14055e-07
3.81125e-07
-1.95085e-07
5.22343e-07
-2.93262e-07
6.52262e-07
-4.06011e-07
7.68547e-07
-5.3079e-07
8.69401e-07
-6.65096e-07
9.53546e-07
-8.06481e-07
1.02016e-06
-9.52564e-07
1.06883e-06
-1.10105e-06
1.0995e-06
-1.24973e-06
1.1124e-06
-1.39651e-06
1.10801e-06
-1.53943e-06
1.08703e-06
-1.67664e-06
1.05031e-06
-1.80644e-06
9.98854e-07
-1.92725e-06
9.33748e-07
-2.03766e-06
8.56173e-07
-2.13641e-06
7.67375e-07
-2.22237e-06
6.68651e-07
-2.29457e-06
5.61342e-07
-2.35221e-06
4.46827e-07
-2.39462e-06
3.26521e-07
-2.4213e-06
2.01871e-07
7.43583e-08
-1.50522e-08
9.22515e-08
-5.72438e-08
2.73708e-07
-1.23619e-07
4.47501e-07
-2.11243e-07
6.09966e-07
-3.17211e-07
7.5823e-07
-4.3866e-07
8.89996e-07
-5.72781e-07
1.00352e-06
-7.1683e-07
1.0976e-06
-8.68147e-07
1.17148e-06
-1.02417e-06
1.22485e-06
-1.18243e-06
1.25777e-06
-1.34062e-06
1.27058e-06
-1.49651e-06
1.26391e-06
-1.64807e-06
1.23858e-06
-1.79336e-06
1.19561e-06
-1.93065e-06
1.13614e-06
-2.05832e-06
1.06142e-06
-2.17493e-06
9.72782e-07
-2.27919e-06
8.7163e-07
-2.36995e-06
7.59416e-07
-2.44625e-06
6.37636e-07
-2.50725e-06
5.07825e-07
-2.55228e-06
3.71552e-07
-2.58082e-06
2.30418e-07
8.60637e-08
-1.62394e-08
1.08491e-07
-6.17255e-08
3.19194e-07
-1.33206e-07
5.18981e-07
-2.27438e-07
7.04198e-07
-3.41211e-07
8.72004e-07
-4.71372e-07
1.02016e-06
-6.14838e-07
1.14699e-06
-7.6862e-07
1.25138e-06
-9.29839e-07
1.3327e-06
-1.09574e-06
1.39076e-06
-1.26372e-06
1.42574e-06
-1.4313e-06
1.43816e-06
-1.59618e-06
1.42879e-06
-1.75622e-06
1.39863e-06
-1.90945e-06
1.34884e-06
-2.05407e-06
1.28076e-06
-2.18844e-06
1.19579e-06
-2.31109e-06
1.09543e-06
-2.42072e-06
9.81259e-07
-2.51618e-06
8.54878e-07
-2.59649e-06
7.17946e-07
-2.66082e-06
5.72149e-07
-2.70848e-06
4.19212e-07
-2.73895e-06
2.60888e-07
9.89706e-08
-1.74402e-08
1.25931e-07
-6.62519e-08
3.68005e-07
-1.42879e-07
5.95609e-07
-2.43765e-07
8.05084e-07
-3.65388e-07
9.93627e-07
-5.04293e-07
1.15906e-06
-6.57121e-07
1.29982e-06
-8.20631e-07
1.41489e-06
-9.91719e-07
1.50379e-06
-1.16744e-06
1.56648e-06
-1.34502e-06
1.60332e-06
-1.52187e-06
1.61501e-06
-1.69558e-06
1.6025e-06
-1.86393e-06
1.56698e-06
-2.0249e-06
1.50981e-06
-2.17664e-06
1.4325e-06
-2.3175e-06
1.33665e-06
-2.446e-06
1.22393e-06
-2.56083e-06
1.09609e-06
-2.66085e-06
9.54897e-07
-2.74507e-06
8.02167e-07
-2.81266e-06
6.39743e-07
-2.86295e-06
4.69496e-07
-2.89539e-06
2.9333e-07
1.13185e-07
-1.86636e-08
1.44595e-07
-7.08538e-08
4.20196e-07
-1.52698e-07
6.77453e-07
-2.60313e-07
9.12699e-07
-3.89854e-07
1.12317e-06
-5.37556e-07
1.30676e-06
-6.99773e-07
1.46203e-06
-8.73002e-07
1.58812e-06
-1.05391e-06
1.6847e-06
-1.23936e-06
1.75193e-06
-1.42642e-06
1.79038e-06
-1.61237e-06
1.80095e-06
-1.79469e-06
1.78482e-06
-1.97111e-06
1.74339e-06
-2.13955e-06
1.67825e-06
-2.29814e-06
1.5911e-06
-2.44523e-06
1.48373e-06
-2.57932e-06
1.35803e-06
-2.69912e-06
1.21589e-06
-2.80351e-06
1.05928e-06
-2.89149e-06
8.90155e-07
-2.96226e-06
7.10514e-07
-3.01514e-06
5.22374e-07
-3.04959e-06
3.2778e-07
1.2881e-07
-1.9918e-08
1.64513e-07
-7.55595e-08
4.75837e-07
-1.62717e-07
7.6461e-07
-2.77162e-07
1.02714e-06
-4.14712e-07
1.26072e-06
-5.71279e-07
1.46333e-06
-7.42913e-07
1.63367e-06
-9.25844e-07
1.77105e-06
-1.11651e-06
1.87536e-06
-1.31156e-06
1.94699e-06
-1.50791e-06
1.98673e-06
-1.70271e-06
1.99575e-06
-1.89337e-06
1.97548e-06
-2.07754e-06
1.92756e-06
-2.25311e-06
1.85382e-06
-2.41821e-06
1.75619e-06
-2.57116e-06
1.63669e-06
-2.71052e-06
1.49738e-06
-2.83499e-06
1.34037e-06
-2.94347e-06
1.16776e-06
-3.03502e-06
9.81701e-07
-3.10883e-06
7.84322e-07
-3.16423e-06
5.77778e-07
-3.2007e-06
3.64248e-07
1.45939e-07
-2.12111e-08
1.85724e-07
-8.03956e-08
5.35022e-07
-1.72986e-07
8.57201e-07
-2.94389e-07
1.14855e-06
-4.40058e-07
1.40639e-06
-6.05564e-07
1.62884e-06
-7.86641e-07
1.81474e-06
-9.79237e-07
1.96364e-06
-1.17954e-06
2.07566e-06
-1.38402e-06
2.15146e-06
-1.58941e-06
2.19213e-06
-1.79276e-06
2.1991e-06
-1.99138e-06
2.1741e-06
-2.18289e-06
2.11907e-06
-2.36515e-06
2.03608e-06
-2.53628e-06
1.92733e-06
-2.69466e-06
1.79506e-06
-2.83883e-06
1.64156e-06
-2.96757e-06
1.4691e-06
-3.07981e-06
1.28e-06
-3.17463e-06
1.07653e-06
-3.25127e-06
8.60962e-07
-3.30909e-06
6.35592e-07
-3.34755e-06
4.02713e-07
1.64648e-07
-2.25508e-08
2.08275e-07
-8.53886e-08
5.9786e-07
-1.83557e-07
9.55369e-07
-3.12064e-07
1.27705e-06
-4.65979e-07
1.5603e-06
-6.40504e-07
1.80336e-06
-8.31038e-07
2.00528e-06
-1.03323e-06
2.16584e-06
-1.24303e-06
2.28546e-06
-1.45668e-06
2.36512e-06
-1.67079e-06
2.40623e-06
-1.88226e-06
2.41057e-06
-2.08836e-06
2.3802e-06
-2.28667e-06
2.31737e-06
-2.47504e-06
2.22445e-06
-2.65163e-06
2.10392e-06
-2.81483e-06
1.95826e-06
-2.96327e-06
1.78999e-06
-3.09576e-06
1.60159e-06
-3.21129e-06
1.39553e-06
-3.30902e-06
1.17425e-06
-3.38821e-06
9.4015e-07
-3.44825e-06
6.95637e-07
-3.48865e-06
4.43111e-07
1.84993e-07
-2.39451e-08
2.3222e-07
-9.05658e-08
6.6448e-07
-1.9448e-07
1.05928e-06
-3.30263e-07
1.41284e-06
-4.92563e-07
1.7226e-06
-6.76185e-07
1.98698e-06
-8.76171e-07
2.20526e-06
-1.08786e-06
2.37752e-06
-1.30693e-06
2.50453e-06
-1.52943e-06
2.58762e-06
-1.7518e-06
2.6286e-06
-1.97087e-06
2.62964e-06
-2.18383e-06
2.59317e-06
-2.38824e-06
2.52179e-06
-2.582e-06
2.41821e-06
-2.7633e-06
2.28521e-06
-2.93059e-06
2.12556e-06
-3.08258e-06
1.94198e-06
-3.21816e-06
1.73718e-06
-3.33641e-06
1.51378e-06
-3.43654e-06
1.27438e-06
-3.5179e-06
1.02151e-06
-3.57992e-06
7.57658e-07
-3.62213e-06
4.85321e-07
2.06996e-07
-2.5403e-08
2.57623e-07
-9.59574e-08
7.35035e-07
-2.05811e-07
1.16914e-06
-3.49064e-07
1.55609e-06
-5.199e-07
1.89344e-06
-7.12692e-07
2.17978e-06
-9.22095e-07
2.41467e-06
-1.14311e-06
2.59854e-06
-1.37116e-06
2.73257e-06
-1.60207e-06
2.81853e-06
-1.83214e-06
2.85867e-06
-2.05811e-06
2.85561e-06
-2.27715e-06
2.8122e-06
-2.48682e-06
2.73145e-06
-2.68505e-06
2.61645e-06
-2.87012e-06
2.47028e-06
-3.04058e-06
2.29602e-06
-3.19523e-06
2.09663e-06
-3.33308e-06
1.87503e-06
-3.45331e-06
1.63401e-06
-3.55523e-06
1.3763e-06
-3.63827e-06
1.10454e-06
-3.70192e-06
8.21308e-07
-3.74575e-06
5.29156e-07
2.30636e-07
-2.69349e-08
2.84558e-07
-1.01598e-07
8.09698e-07
-2.17615e-07
1.28515e-06
-3.68556e-07
1.70703e-06
-5.48089e-07
2.07297e-06
-7.50113e-07
2.3818e-06
-9.68861e-07
2.63341e-06
-1.19898e-06
2.82866e-06
-1.4356e-06
2.96919e-06
-1.67436e-06
3.05729e-06
-1.91141e-06
3.09573e-06
-2.14343e-06
3.08762e-06
-2.36755e-06
3.03633e-06
-2.5814e-06
2.9453e-06
-2.78299e-06
2.81804e-06
-2.97069e-06
2.65799e-06
-3.14319e-06
2.46851e-06
-3.29942e-06
2.25286e-06
-3.43853e-06
2.01414e-06
-3.55983e-06
1.75532e-06
-3.66276e-06
1.47924e-06
-3.74684e-06
1.18863e-06
-3.81167e-06
8.86133e-07
-3.85686e-06
5.74346e-07
2.5584e-07
-2.85534e-08
3.13111e-07
-1.0753e-07
8.88675e-07
-2.2997e-07
1.40759e-06
-3.88843e-07
1.8659e-06
-5.77246e-07
2.26137e-06
-7.88548e-07
2.5931e-06
-1.01652e-06
2.86139e-06
-1.25543e-06
3.06758e-06
-1.50011e-06
3.21388e-06
-1.746e-06
3.30317e-06
-1.98911e-06
3.33884e-06
-2.22609e-06
3.3246e-06
-2.4541e-06
3.26434e-06
-2.67082e-06
3.16203e-06
-2.87439e-06
3.02161e-06
-3.06333e-06
2.84693e-06
-3.23649e-06
2.64167e-06
-3.39298e-06
2.40935e-06
-3.53212e-06
2.15328e-06
-3.65339e-06
1.87659e-06
-3.75638e-06
1.58223e-06
-3.84075e-06
1.27299e-06
-3.90617e-06
9.51555e-07
-3.95235e-06
6.20527e-07
2.82472e-07
-3.02745e-08
3.43385e-07
-1.13807e-07
9.72207e-07
-2.42969e-07
1.53676e-06
-4.10056e-07
2.03299e-06
-6.07513e-07
2.45883e-06
-8.28117e-07
2.81371e-06
-1.06513e-06
3.0984e-06
-1.31241e-06
3.31486e-06
-1.56448e-06
3.46595e-06
-1.81658e-06
3.55527e-06
-2.06463e-06
3.58689e-06
-2.30524e-06
3.56521e-06
-2.53565e-06
3.49474e-06
-2.75366e-06
3.38003e-06
-2.95755e-06
3.22551e-06
-3.14606e-06
3.03543e-06
-3.31824e-06
2.81385e-06
-3.47341e-06
2.56452e-06
-3.61113e-06
2.29099e-06
-3.73105e-06
1.99651e-06
-3.83295e-06
1.68413e-06
-3.91665e-06
1.35668e-06
-3.98195e-06
1.01686e-06
-4.02865e-06
6.67227e-07
3.10314e-07
-3.21186e-08
3.75504e-07
-1.20493e-07
1.06058e-06
-2.56734e-07
1.673e-06
-4.32357e-07
2.20861e-06
-6.39064e-07
2.66554e-06
-8.68965e-07
3.04361e-06
-1.11476e-06
3.34419e-06
-1.36986e-06
3.56995e-06
-1.62847e-06
3.72457e-06
-1.88564e-06
3.81244e-06
-2.13723e-06
3.83848e-06
-2.37985e-06
3.80784e-06
-2.61087e-06
3.72576e-06
-2.82824e-06
3.59741e-06
-3.03049e-06
3.42776e-06
-3.21658e-06
3.22152e-06
-3.38583e-06
2.98309e-06
-3.53783e-06
2.71653e-06
-3.67238e-06
2.42554e-06
-3.78939e-06
2.11353e-06
-3.88885e-06
1.78359e-06
-3.97075e-06
1.43858e-06
-4.03506e-06
1.08117e-06
-4.08168e-06
7.13848e-07
3.39064e-07
-3.41118e-08
4.09616e-07
-1.27676e-07
1.15415e-06
-2.71418e-07
1.81674e-06
-4.55951e-07
2.39315e-06
-6.72119e-07
2.88171e-06
-9.11274e-07
3.28276e-06
-1.16548e-06
3.5984e-06
-1.42769e-06
3.83216e-06
-1.69177e-06
3.98865e-06
-1.9526e-06
4.07327e-06
-2.20601e-06
4.09188e-06
-2.44868e-06
4.05051e-06
-2.67815e-06
3.95522e-06
-2.89261e-06
3.81187e-06
-3.09087e-06
3.62602e-06
-3.2722e-06
3.40285e-06
-3.43623e-06
3.14713e-06
-3.58289e-06
2.86318e-06
-3.71226e-06
2.55491e-06
-3.82455e-06
2.22581e-06
-3.91998e-06
1.87902e-06
-3.99876e-06
1.51737e-06
-4.06104e-06
1.14345e-06
-4.10686e-06
7.59662e-07
3.68315e-07
-3.62883e-08
4.45904e-07
-1.35465e-07
1.25332e-06
-2.87218e-07
1.96849e-06
-4.81098e-07
2.58703e-06
-7.06955e-07
3.10756e-06
-9.55269e-07
3.53108e-06
-1.21741e-06
3.86054e-06
-1.4858e-06
4.10055e-06
-1.754e-06
4.25686e-06
-2.01675e-06
4.33602e-06
-2.26988e-06
4.345e-06
-2.51023e-06
4.29087e-06
-2.73558e-06
4.18057e-06
-2.94443e-06
4.02072e-06
-3.13595e-06
3.81754e-06
-3.30979e-06
3.57669e-06
-3.46597e-06
3.30331e-06
-3.60478e-06
3.00199e-06
-3.72666e-06
2.67679e-06
-3.83213e-06
2.33128e-06
-3.92171e-06
1.96859e-06
-3.99584e-06
1.5915e-06
-4.05488e-06
1.20248e-06
-4.09901e-06
8.03793e-07
3.97551e-07
-3.86926e-08
4.84597e-07
-1.44004e-07
1.35863e-06
-3.04385e-07
2.12887e-06
-5.08129e-07
2.79077e-06
-7.43916e-07
3.34335e-06
-1.00122e-06
3.78838e-06
-1.27063e-06
4.12995e-06
-1.54403e-06
4.37394e-06
-1.81467e-06
4.5275e-06
-2.07718e-06
4.59854e-06
-2.32749e-06
4.59531e-06
-2.56269e-06
4.52606e-06
-2.78086e-06
4.39874e-06
-2.98093e-06
4.2208e-06
-3.16252e-06
3.99912e-06
-3.32572e-06
3.73989e-06
-3.47101e-06
3.44861e-06
-3.59912e-06
3.1301e-06
-3.71089e-06
2.78856e-06
-3.80718e-06
2.42758e-06
-3.88884e-06
2.05025e-06
-3.95659e-06
1.65925e-06
-4.011e-06
1.25689e-06
-4.05243e-06
8.45223e-07
4.26137e-07
-4.13829e-08
5.2598e-07
-1.53476e-07
1.47073e-06
-3.23242e-07
2.29864e-06
-5.37461e-07
3.00499e-06
-7.83426e-07
3.58931e-06
-1.04946e-06
4.05442e-06
-1.32527e-06
4.40576e-06
-1.60216e-06
4.65084e-06
-1.87312e-06
4.79846e-06
-2.13276e-06
4.85817e-06
-2.37719e-06
4.83974e-06
-2.60383e-06
4.7527e-06
-2.81122e-06
4.60614e-06
-2.99883e-06
4.40841e-06
-3.16679e-06
4.16708e-06
-3.31577e-06
3.88886e-06
-3.44675e-06
3.57959e-06
-3.56096e-06
3.24431e-06
-3.65967e-06
2.88727e-06
-3.74416e-06
2.51207e-06
-3.81561e-06
2.1217e-06
-3.87504e-06
1.71868e-06
-3.92325e-06
1.30511e-06
-3.96081e-06
8.82784e-07
4.53316e-07
-4.4436e-08
5.70416e-07
-1.64124e-07
1.59041e-06
-3.44203e-07
2.47872e-06
-5.69616e-07
3.2304e-06
-8.26004e-07
3.8457e-06
-1.10034e-06
4.32875e-06
-1.38138e-06
4.68679e-06
-1.65984e-06
4.92929e-06
-1.92848e-06
5.0671e-06
-2.182e-06
5.1117e-06
-2.41683e-06
5.07457e-06
-2.63089e-06
4.96676e-06
-2.82331e-06
4.79855e-06
-2.99418e-06
4.57928e-06
-3.14432e-06
4.31722e-06
-3.27501e-06
4.01955e-06
-3.38786e-06
3.69244e-06
-3.48461e-06
3.34106e-06
-3.56704e-06
2.9697e-06
-3.63684e-06
2.58188e-06
-3.69558e-06
2.18044e-06
-3.74457e-06
1.76767e-06
-3.78489e-06
1.34542e-06
-3.81728e-06
9.15179e-07
4.78219e-07
-4.7953e-08
6.18368e-07
-1.76259e-07
1.71872e-06
-3.67795e-07
2.67025e-06
-6.05245e-07
3.46785e-06
-8.72265e-07
4.11272e-06
-1.15427e-06
4.61076e-06
-1.43896e-06
4.97148e-06
-1.71649e-06
5.20682e-06
-1.9795e-06
5.33012e-06
-2.22294e-06
5.35513e-06
-2.44371e-06
5.29534e-06
-2.64042e-06
5.16347e-06
-2.81297e-06
4.9711e-06
-2.96224e-06
4.72855e-06
-3.08981e-06
4.44479e-06
-3.1977e-06
4.12745e-06
-3.28819e-06
3.78293e-06
-3.36363e-06
3.41649e-06
-3.42629e-06
3.03236e-06
-3.47834e-06
2.63392e-06
-3.52169e-06
2.22379e-06
-3.55799e-06
1.80398e-06
-3.58857e-06
1.376e-06
-3.61438e-06
9.40998e-07
4.99867e-07
-5.20684e-08
6.70437e-07
-1.9029e-07
1.85694e-06
-3.94692e-07
2.87466e-06
-6.45151e-07
3.71831e-06
-9.22925e-07
4.3905e-06
-1.21164e-06
4.89948e-06
-1.49784e-06
5.25768e-06
-1.77122e-06
5.4802e-06
-2.02445e-06
5.58335e-06
-2.25292e-06
5.5836e-06
-2.4543e-06
5.49672e-06
-2.62807e-06
5.33724e-06
-2.7751e-06
5.11813e-06
-2.89723e-06
4.85068e-06
-2.99695e-06
4.5445e-06
-3.0771e-06
4.2076e-06
-3.14069e-06
3.84652e-06
-3.19069e-06
3.46648e-06
-3.22992e-06
3.0716e-06
-3.26098e-06
2.66499e-06
-3.28618e-06
2.24898e-06
-3.30745e-06
1.82525e-06
-3.32638e-06
1.39493e-06
-3.34414e-06
9.58757e-07
5.17203e-07
-5.69627e-08
7.274e-07
-2.06754e-07
2.00673e-06
-4.25751e-07
3.09365e-06
-6.9031e-07
3.98287e-06
-9.78781e-07
4.67897e-06
-1.27273e-06
5.19343e-06
-1.55756e-06
5.54251e-06
-1.82259e-06
5.74523e-06
-2.06081e-06
5.82157e-06
-2.26836e-06
5.79116e-06
-2.44396e-06
5.67232e-06
-2.58827e-06
5.48154e-06
-2.70333e-06
5.23319e-06
-2.79214e-06
4.93949e-06
-2.85822e-06
4.61058e-06
-2.90532e-06
4.2547e-06
-2.9372e-06
3.8784e-06
-2.95748e-06
3.48676e-06
-2.96952e-06
3.08363e-06
-2.97634e-06
2.67181e-06
-2.98059e-06
2.25323e-06
-2.9845e-06
1.82916e-06
-2.98987e-06
1.4003e-06
-2.99807e-06
9.66955e-07
5.29127e-07
-6.28806e-08
7.9028e-07
-2.26359e-07
2.17021e-06
-4.62065e-07
3.32936e-06
-7.41891e-07
4.2627e-06
-1.04067e-06
4.97774e-06
-1.33764e-06
5.4904e-06
-1.61712e-06
5.82198e-06
-1.86833e-06
5.99644e-06
-2.08496e-06
6.0382e-06
-2.26433e-06
5.97053e-06
-2.40657e-06
5.81457e-06
-2.51386e-06
5.58883e-06
-2.58971e-06
5.30904e-06
-2.63841e-06
4.9882e-06
-2.66464e-06
4.6368e-06
-2.67309e-06
4.26315e-06
-2.66833e-06
3.87364e-06
-2.65459e-06
3.47303e-06
-2.63573e-06
3.06477e-06
-2.61515e-06
2.65123e-06
-2.59578e-06
2.23387e-06
-2.5801e-06
1.81348e-06
-2.5701e-06
1.3903e-06
-2.56729e-06
9.64142e-07
5.3454e-07
-7.01596e-08
8.6044e-07
-2.50047e-07
2.3501e-06
-5.05018e-07
3.58433e-06
-8.01257e-07
4.55894e-06
-1.10934e-06
5.28583e-06
-1.40602e-06
5.78708e-06
-1.67467e-06
6.09063e-06
-1.90492e-06
6.22669e-06
-2.09168e-06
6.22497e-06
-2.23403e-06
6.11287e-06
-2.33401e-06
5.91455e-06
-2.39568e-06
5.6505e-06
-2.42426e-06
5.33763e-06
-2.42556e-06
4.98949e-06
-2.40543e-06
4.61668e-06
-2.36959e-06
4.22731e-06
-2.32332e-06
3.82737e-06
-2.27144e-06
3.42115e-06
-2.21821e-06
3.01154e-06
-2.16733e-06
2.60035e-06
-2.12196e-06
2.1885e-06
-2.08473e-06
1.77624e-06
-2.05773e-06
1.3633e-06
-2.04261e-06
9.49017e-07
5.3242e-07
-7.92739e-08
9.39714e-07
-2.79087e-07
2.54991e-06
-5.5636e-07
3.8616e-06
-8.69928e-07
4.8725e-06
-1.18531e-06
5.60121e-06
-1.47666e-06
6.07843e-06
-1.72694e-06
6.34091e-06
-1.92687e-06
6.42662e-06
-2.07341e-06
6.37151e-06
-2.16809e-06
6.20755e-06
-2.21546e-06
5.96191e-06
-2.22186e-06
5.65691e-06
-2.19451e-06
5.31027e-06
-2.14077e-06
4.93575e-06
-2.06779e-06
4.5437e-06
-1.98217e-06
4.14169e-06
-1.88989e-06
3.73508e-06
-1.79618e-06
3.32744e-06
-1.70561e-06
2.92097e-06
-1.62205e-06
2.51679e-06
-1.54875e-06
2.1152e-06
-1.48841e-06
1.7159e-06
-1.44316e-06
1.31806e-06
-1.41468e-06
9.20536e-07
5.21898e-07
-9.09064e-08
1.03062e-06
-3.15205e-07
2.77421e-06
-6.1827e-07
4.16467e-06
-9.49458e-07
5.20369e-06
-1.2684e-06
5.92014e-06
-1.54691e-06
6.35695e-06
-1.76839e-06
6.56239e-06
-1.92581e-06
6.58404e-06
-2.01926e-06
6.46497e-06
-2.05363e-06
6.24191e-06
-2.0366e-06
5.94489e-06
-1.97723e-06
5.59753e-06
-1.88486e-06
5.2179e-06
-1.76852e-06
4.81941e-06
-1.6365e-06
4.41168e-06
-1.49621e-06
4.00141e-06
-1.3541e-06
3.59297e-06
-1.21567e-06
3.18901e-06
-1.08558e-06
2.79088e-06
-9.6773e-07
2.39893e-06
-8.6531e-07
2.01278e-06
-7.80936e-07
1.63152e-06
-7.16693e-07
1.25382e-06
-6.74205e-07
8.78047e-07
5.02358e-07
-1.06069e-07
1.13669e-06
-3.60771e-07
3.02891e-06
-6.93404e-07
4.4973e-06
-1.04114e-06
5.55143e-06
-1.35708e-06
6.23608e-06
-1.61154e-06
6.61141e-06
-1.78991e-06
6.74076e-06
-1.88906e-06
6.68319e-06
-1.91366e-06
6.48957e-06
-1.873e-06
6.20125e-06
-1.77856e-06
5.85044e-06
-1.64237e-06
5.46135e-06
-1.47603e-06
5.05156e-06
-1.29006e-06
4.63344e-06
-1.09373e-06
4.21535e-06
-8.94955e-07
3.80263e-06
-7.0039e-07
3.3984e-06
-5.15551e-07
3.00417e-06
-3.44959e-07
2.62029e-06
-1.92293e-07
2.24627e-06
-6.05275e-08
1.88102e-06
4.79499e-08
1.52304e-06
1.31239e-07
1.17053e-06
1.87854e-07
8.21433e-07
4.73544e-07
-1.26312e-07
1.263e-06
-4.19066e-07
3.32167e-06
-7.84824e-07
4.86306e-06
-1.14533e-06
5.91193e-06
-1.44715e-06
6.5379e-06
-1.661e-06
6.82526e-06
-1.77677e-06
6.85653e-06
-1.79761e-06
6.70403e-06
-1.73451e-06
6.42647e-06
-1.60225e-06
6.06899e-06
-1.41664e-06
5.66483e-06
-1.19282e-06
5.23753e-06
-9.44414e-07
4.80315e-06
-6.8315e-07
4.37218e-06
-4.18837e-07
3.95104e-06
-1.59513e-07
3.54331e-06
8.83442e-08
3.15054e-06
3.19567e-07
2.77295e-06
5.30066e-07
2.40979e-06
7.16615e-07
2.05972e-06
8.76677e-07
1.72096e-06
1.00825e-06
1.39147e-06
1.10975e-06
1.06903e-06
1.17993e-06
7.5125e-07
4.35665e-07
-1.54085e-07
1.41709e-06
-4.94613e-07
3.6622e-06
-8.95627e-07
5.26407e-06
-1.26004e-06
6.27635e-06
-1.5294e-06
6.80726e-06
-1.6785e-06
6.97435e-06
-1.70566e-06
6.88369e-06
-1.62332e-06
6.62169e-06
-1.45077e-06
6.25392e-06
-1.20924e-06
5.82746e-06
-9.19039e-07
5.37463e-06
-5.98124e-07
4.91662e-06
-2.61619e-07
4.46665e-06
7.81889e-08
4.03237e-06
4.11558e-07
3.61767e-06
7.30914e-07
3.22395e-06
1.03045e-06
2.85101e-06
1.30575e-06
2.49765e-06
1.55351e-06
2.16204e-06
1.77121e-06
1.84202e-06
1.95696e-06
1.5352e-06
2.10932e-06
1.23911e-06
2.22715e-06
9.51197e-07
2.30953e-06
6.68869e-07
3.89497e-07
-1.93372e-07
1.61046e-06
-5.93481e-07
4.0623e-06
-1.02777e-06
5.69836e-06
-1.37805e-06
6.62662e-06
-1.58545e-06
7.01466e-06
-1.63539e-06
7.02429e-06
-1.54015e-06
6.78845e-06
-1.32513e-06
6.40667e-06
-1.01962e-06
5.94842e-06
-6.51668e-07
5.45951e-06
-2.4559e-07
4.96855e-06
1.78728e-07
4.4923e-06
6.05691e-07
4.03969e-06
1.02344e-06
3.61462e-06
1.42319e-06
3.21793e-06
1.79853e-06
2.84861e-06
2.14491e-06
2.50463e-06
2.45914e-06
2.18342e-06
2.73901e-06
1.88218e-06
2.98298e-06
1.59804e-06
3.19002e-06
1.32816e-06
3.35937e-06
1.06977e-06
3.49044e-06
8.20123e-07
3.58274e-06
5.76568e-07
3.36456e-07
-2.50731e-07
1.86119e-06
-7.23124e-07
4.5347e-06
-1.17894e-06
6.15418e-06
-1.48096e-06
6.92864e-06
-1.58044e-06
7.11414e-06
-1.48384e-06
6.92768e-06
-1.22452e-06
6.52914e-06
-8.44266e-07
6.02642e-06
-3.83137e-07
5.48729e-06
1.24905e-07
4.95147e-06
6.531e-07
4.44035e-06
1.1814e-06
3.964e-06
1.69534e-06
3.52574e-06
2.18487e-06
3.12509e-06
2.64321e-06
2.75959e-06
3.06596e-06
2.42586e-06
3.45042e-06
2.12017e-06
3.79503e-06
1.83881e-06
4.09899e-06
1.57821e-06
4.36198e-06
1.33505e-06
4.58392e-06
1.10622e-06
4.76486e-06
8.88826e-07
4.90484e-06
6.80146e-07
5.00382e-06
4.77586e-07
2.78634e-07
-3.36803e-07
2.19799e-06
-8.90381e-07
5.08827e-06
-1.33486e-06
6.59866e-06
-1.52766e-06
7.12144e-06
-1.45055e-06
7.03703e-06
-1.14587e-06
6.623e-06
-6.75369e-07
6.05864e-06
-9.88054e-08
5.44985e-06
5.34662e-07
4.85382e-06
1.1881e-06
4.29803e-06
1.83543e-06
3.79302e-06
2.45919e-06
3.34025e-06
3.04824e-06
2.93669e-06
3.59592e-06
2.57741e-06
4.09862e-06
2.25689e-06
4.55474e-06
1.96974e-06
4.96393e-06
1.71097e-06
5.3266e-06
1.47613e-06
5.64357e-06
1.26125e-06
5.9158e-06
1.06283e-06
6.14425e-06
8.77767e-07
6.32979e-06
7.03285e-07
6.4731e-06
5.36842e-07
6.5746e-06
3.76083e-07
2.18765e-07
-4.67184e-07
2.66518e-06
-1.09316e-06
5.71425e-06
-1.4509e-06
6.9564e-06
-1.43191e-06
7.10246e-06
-1.08257e-06
6.68769e-06
-4.97958e-07
6.03838e-06
2.28101e-07
5.33258e-06
1.02128e-06
4.65667e-06
1.82921e-06
4.04589e-06
2.61786e-06
3.50938e-06
3.36668e-06
3.0442e-06
4.06434e-06
2.64259e-06
4.70546e-06
2.29557e-06
5.2884e-06
1.99447e-06
5.81369e-06
1.7316e-06
6.28305e-06
1.50038e-06
6.69877e-06
1.29525e-06
7.06334e-06
1.11156e-06
7.37916e-06
9.4542e-07
7.64847e-06
7.93522e-07
7.87318e-06
6.53052e-07
8.05491e-06
5.21559e-07
8.19488e-06
3.96868e-07
8.29397e-06
2.77002e-07
1.60111e-07
-6.56505e-07
3.32168e-06
-1.29245e-06
6.3502e-06
-1.41024e-06
7.07419e-06
-1.02167e-06
6.71389e-06
-2.83237e-07
5.94926e-06
6.47597e-07
5.10755e-06
1.65262e-06
4.32756e-06
2.65561e-06
3.65368e-06
3.61275e-06
3.08876e-06
4.50177e-06
2.62036e-06
5.31359e-06
2.23237e-06
6.04668e-06
1.90951e-06
6.7035e-06
1.63875e-06
7.28842e-06
1.40955e-06
7.8065e-06
1.21352e-06
8.26285e-06
1.04403e-06
8.66226e-06
8.95846e-07
9.00903e-06
7.64795e-07
9.30693e-06
6.47517e-07
9.55918e-06
5.41272e-07
9.76845e-06
4.43786e-07
9.93688e-06
3.5313e-07
1.00661e-05
2.67631e-07
1.01573e-05
1.85796e-07
1.0625e-07
-8.88013e-07
4.20969e-06
-1.33347e-06
6.79565e-06
-9.35282e-07
6.676e-06
2.90689e-08
5.74954e-06
1.26052e-06
4.7178e-06
2.55888e-06
3.80919e-06
3.81174e-06
3.0747e-06
4.9662e-06
2.49922e-06
6.00388e-06
2.05108e-06
6.92415e-06
1.70009e-06
7.73445e-06
1.42207e-06
8.4452e-06
1.19876e-06
9.06723e-06
1.01672e-06
9.61065e-06
8.66122e-07
1.00845e-05
7.39717e-07
1.04964e-05
6.3212e-07
1.08529e-05
5.39273e-07
1.11597e-05
4.58067e-07
1.14211e-05
3.86081e-07
1.1641e-05
3.21393e-07
1.18223e-05
2.62445e-07
1.19675e-05
2.07946e-07
1.20783e-05
1.56794e-07
1.21561e-05
1.0802e-07
6.07424e-08
-1.0153e-06
5.22499e-06
-7.47808e-07
6.52816e-06
5.84041e-07
5.34415e-06
2.29992e-06
4.03366e-06
4.01939e-06
2.99832e-06
5.58434e-06
2.24425e-06
6.94818e-06
1.71086e-06
8.11453e-06
1.33287e-06
9.10557e-06
1.06004e-06
9.94739e-06
8.58272e-07
1.06642e-05
7.05264e-07
1.12766e-05
5.86396e-07
1.18013e-05
4.91969e-07
1.2252e-05
4.15422e-07
1.26395e-05
3.52213e-07
1.29725e-05
2.99123e-07
1.3258e-05
2.53815e-07
1.35015e-05
2.14558e-07
1.37075e-05
1.80033e-07
1.38797e-05
1.49218e-07
1.40208e-05
1.213e-07
1.41332e-05
9.56135e-08
1.42184e-05
7.16009e-08
1.42776e-05
4.87762e-08
2.67022e-08
-2.34944e-07
5.45994e-06
1.80406e-06
4.48916e-06
4.40157e-06
2.74664e-06
6.72186e-06
1.71337e-06
8.60687e-06
1.11331e-06
1.00972e-05