unknown system                          
   1.00000000000000     
     3.459762   -0.000000    1.997495
     1.153254    3.261896    1.997495
    -0.000000   -0.000000    3.994989
   Na   Cl
     1     1
Direct
  0.000000  0.000000  0.000000
  0.500000  0.500000  0.500000
 
   48   48   48
 0.90283207092E+02 0.11525576623E+04 0.11305302117E+04 0.72140163948E+03 0.40310215019E+03
 0.21559889568E+03 0.11411772727E+03 0.60631020350E+02 0.32629896703E+02 0.17939653350E+02
 0.10150886131E+02 0.59480489312E+01 0.36547017319E+01 0.24153179608E+01 0.17876218211E+01
 0.14921457059E+01 0.13641846890E+01 0.13178112724E+01 0.13116814723E+01 0.13261470797E+01
 0.13505375026E+01 0.13774377453E+01 0.14009976491E+01 0.14168825442E+01 0.14224676452E+01
 0.14168825442E+01 0.14009976491E+01 0.13774377453E+01 0.13505375026E+01 0.13261470797E+01
 0.13116814723E+01 0.13178112724E+01 0.13641846890E+01 0.14921457059E+01 0.17876218211E+01
 0.24153179608E+01 0.36547017319E+01 0.59480489312E+01 0.10150886131E+02 0.17939653350E+02
 0.32629896703E+02 0.60631020350E+02 0.11411772727E+03 0.21559889568E+03 0.40310215019E+03
 0.72140163948E+03 0.11305302117E+04 0.11525576623E+04 0.11525579058E+04 0.12149065895E+04
 0.86549271732E+03 0.51135082729E+03 0.28065830399E+03 0.15026005388E+03 0.80127626974E+02
 0.43035362242E+02 0.23492171832E+02 0.13144352431E+02 0.75883813877E+01 0.45548238163E+01
 0.29019044701E+01 0.20311535283E+01 0.16066679845E+01 0.14146983862E+01 0.13374542149E+01
 0.13162351967E+01 0.13232689472E+01 0.13446741375E+01 0.13718569479E+01 0.13982575528E+01
 0.14187628600E+01 0.14298860114E+01 0.14298860114E+01 0.14187628600E+01 0.13982575528E+01
 0.13718569479E+01 0.13446741375E+01 0.13232689472E+01 0.13162351967E+01 0.13374542149E+01
 0.14146983862E+01 0.16066679845E+01 0.20311535283E+01 0.29019044701E+01 0.45548238163E+01
 0.75883814444E+01 0.13144352703E+02 0.23492172690E+02 0.43035364355E+02 0.80127631293E+02
 0.15026006134E+03 0.28065831420E+03 0.51135083336E+03 0.86549268914E+03 0.12149064491E+04
 0.11525577000E+04 0.11305303380E+04 0.86549273732E+03 0.55567169795E+03 0.32286492525E+03
 0.17915014402E+03 0.97668421687E+02 0.53126938517E+02 0.29153437535E+02 0.16298489285E+02
 0.93571326237E+01 0.55296988490E+01 0.34622865752E+01 0.23278478758E+01 0.17551944545E+01
 0.14871978091E+01 0.13732319214E+01 0.13348227474E+01 0.13340574947E+01 0.13526273961E+01
 0.13802648538E+01 0.14096390067E+01 0.14349286959E+01 0.14518331801E+01 0.14577549527E+01
 0.14518331801E+01 0.14349286959E+01 0.14096390067E+01 0.13802648538E+01 0.13526273961E+01
 0.13340574947E+01 0.13348227474E+01 0.13732319214E+01 0.14871978091E+01 0.17551944545E+01
 0.23278478758E+01 0.34622865752E+01 0.55296988490E+01 0.93571328449E+01 0.16298490140E+02
 0.29153439931E+02 0.53126943894E+02 0.97668431829E+02 0.17915016011E+03 0.32286494456E+03
 0.55567170486E+03 0.86549269224E+03 0.11305302312E+04 0.12149066152E+04 0.72140165648E+03
 0.51135081909E+03 0.32286491811E+03 0.19034922099E+03 0.10826962118E+03 0.60633606072E+02
 0.33909272367E+02 0.19162560396E+02 0.11049485546E+02 0.65529953349E+01 0.40436578134E+01
 0.26548529560E+01 0.19283461880E+01 0.15772648226E+01 0.14221651867E+01 0.13647881063E+01
 0.13560288084E+01 0.13721921266E+01 0.14008038851E+01 0.14336194280E+01 0.14641551405E+01
 0.14873614683E+01 0.14998167159E+01 0.14998167159E+01 0.14873614683E+01 0.14641551405E+01
 0.14336194280E+01 0.14008038851E+01 0.13721921266E+01 0.13560288084E+01 0.13647881063E+01
 0.14221651867E+01 0.15772648226E+01 0.19283461880E+01 0.26548529560E+01 0.40436578134E+01
 0.65529954290E+01 0.11049486061E+02 0.19162562120E+02 0.33909276718E+02 0.60633615071E+02
 0.10826963691E+03 0.19034924393E+03 0.32286494346E+03 0.51135083209E+03 0.72140164211E+03
 0.86549272557E+03 0.86549274248E+03 0.40310212725E+03 0.28065828387E+03 0.17915013261E+03
 0.10826961724E+03 0.63429971848E+02 0.36655642809E+02 0.21191733382E+02 0.12401696557E+02
 0.74152953835E+01 0.45755657481E+01 0.29766393175E+01 0.21096084220E+01 0.16770349088E+01
 0.14797440276E+01 0.14027395137E+01 0.13861757169E+01 0.14006211257E+01 0.14310142322E+01
 0.14680332485E+01 0.15045468761E+01 0.15348242969E+01 0.15546690850E+01 0.15615621138E+01
 0.15546690850E+01 0.15348242969E+01 0.15045468761E+01 0.14680332485E+01 0.14310142322E+01
 0.14006211257E+01 0.13861757169E+01 0.14027395137E+01 0.14797440276E+01 0.16770349088E+01
 0.21096084220E+01 0.29766393175E+01 0.45755657481E+01 0.74152955791E+01 0.12401697440E+02
 0.21191736031E+02 0.36655648949E+02 0.63429983624E+02 0.10826963630E+03 0.17915015834E+03
 0.28065831108E+03 0.40310214664E+03 0.51135082491E+03 0.55567169669E+03 0.51135081798E+03
 0.21559886774E+03 0.15026003462E+03 0.97668411188E+02 0.60633601705E+02 0.36655641642E+02
 0.21928810136E+02 0.13158120040E+02 0.80058595148E+01 0.49834072229E+01 0.32503414777E+01
 0.22767757258E+01 0.17752990080E+01 0.15397483158E+01 0.14444160809E+01 0.14209279305E+01
 0.14346326100E+01 0.14678357526E+01 0.15100462468E+01 0.15534885963E+01 0.15918102778E+01
 0.16200983866E+01 0.16350601062E+01 0.16350601062E+01 0.16200983866E+01 0.15918102778E+01
 0.15534885963E+01 0.15100462468E+01 0.14678357526E+01 0.14346326100E+01 0.14209279305E+01
 0.14444160809E+01 0.15397483158E+01 0.17752990080E+01 0.22767757258E+01 0.32503414777E+01
 0.49834072229E+01 0.80058598253E+01 0.13158121257E+02 0.21928813458E+02 0.36655648768E+02
 0.60633614395E+02 0.97668430206E+02 0.15026005836E+03 0.21559889136E+03 0.28065829901E+03
 0.32286492061E+03 0.32286491458E+03 0.28065828200E+03 0.11411770573E+03 0.80127613218E+02
 0.53126931249E+02 0.33909269279E+02 0.21191732403E+02 0.13158119854E+02 0.82160643353E+01
 0.52049710518E+01 0.34346705657E+01 0.24058190666E+01 0.18588916999E+01 0.15946658430E+01
 0.14848073495E+01 0.14562154459E+01 0.14704721397E+01 0.15076549373E+01 0.15561696080E+01
 0.16076262956E+01 0.16551031019E+01 0.16930253402E+01 0.17173738682E+01 0.17257543702E+01
 0.17173738682E+01 0.16930253402E+01 0.16551031019E+01 0.16076262956E+01 0.15561696080E+01
 0.15076549373E+01 0.14704721397E+01 0.14562154459E+01 0.14848073495E+01 0.15946658430E+01
 0.18588916999E+01 0.24058190666E+01 0.34346705657E+01 0.52049710518E+01 0.82160647154E+01
 0.13158121228E+02 0.21191735879E+02 0.33909276240E+02 0.53126942770E+02 0.80127629166E+02
 0.11411772394E+03 0.15026004954E+03 0.17915013932E+03 0.19034921679E+03 0.17915012967E+03
 0.15026003326E+03 0.60631006975E+02 0.43035354244E+02 0.29153433550E+02 0.19162558797E+02
 0.12401696078E+02 0.80058594220E+01 0.52049710518E+01 0.34997476580E+01 0.24762467738E+01
 0.19152008394E+01 0.16367760092E+01 0.15186384284E+01 0.14877380987E+01 0.15041102093E+01
 0.15464626924E+01 0.16023725555E+01 0.16629316618E+01 0.17207085789E+01 0.17695115717E+01
 0.18046334562E+01 0.18229640407E+01 0.18229640407E+01 0.18046334562E+01 0.17695115717E+01
 0.17207085789E+01 0.16629316618E+01 0.16023725555E+01 0.15464626924E+01 0.15041102093E+01
 0.14877380987E+01 0.15186384284E+01 0.16367760092E+01 0.19152008394E+01 0.24762467738E+01
 0.34997476580E+01 0.52049710518E+01 0.80058598109E+01 0.12401697366E+02 0.19162561872E+02
 0.29153439314E+02 0.43035363118E+02 0.60631018281E+02 0.80127624056E+02 0.97668418207E+02
 0.10826961770E+03 0.10826961436E+03 0.97668409333E+02 0.80127612428E+02 0.32629889838E+02
 0.23492168067E+02 0.16298487600E+02 0.11049484959E+02 0.74152952447E+01 0.49834072229E+01
 0.34346705657E+01 0.24762467738E+01 0.19350848387E+01 0.16596597139E+01 0.15411666082E+01
 0.15114541390E+01 0.15316111615E+01 0.15801682438E+01 0.16443479530E+01 0.17149105582E+01
 0.17840058767E+01 0.18448694256E+01 0.18921254103E+01 0.19219730466E+01 0.19321694308E+01
 0.19219730466E+01 0.18921254103E+01 0.18448694256E+01 0.17840058767E+01 0.17149105582E+01
 0.16443479530E+01 0.15801682438E+01 0.15316111615E+01 0.15114541390E+01 0.15411666082E+01
 0.16596597139E+01 0.19350848387E+01 0.24762467738E+01 0.34346705657E+01 0.49834072229E+01
 0.74152955577E+01 0.11049485970E+02 0.16298489879E+02 0.23492172108E+02 0.32629895642E+02
 0.43035360619E+02 0.53126936409E+02 0.60633603750E+02 0.63429969693E+02 0.60633600058E+02
 0.53126930265E+02 0.43035353857E+02 0.17939650534E+02 0.13144351076E+02 0.93571321200E+01
 0.65529952077E+01 0.45755657481E+01 0.32503414777E+01 0.24058190666E+01 0.19152008394E+01
 0.16596597139E+01 0.15490739977E+01 0.15241885184E+01 0.15496268889E+01 0.16050516155E+01
 0.16779377967E+01 0.17589878039E+01 0.18400736385E+01 0.19139261776E+01 0.19745129911E+01
 0.20173375258E+01 0.20394701333E+01 0.20394701333E+01 0.20173375258E+01 0.19745129911E+01
 0.19139261776E+01 0.18400736385E+01 0.17589878039E+01 0.16779377967E+01 0.16050516155E+01
 0.15496268889E+01 0.15241885184E+01 0.15490739977E+01 0.16596597139E+01 0.19152008394E+01
 0.24058190666E+01 0.32503414777E+01 0.45755657481E+01 0.65529954094E+01 0.93571327670E+01
 0.13144352493E+02 0.17939652915E+02 0.23492171092E+02 0.29153436480E+02 0.33909271094E+02
 0.36655641506E+02 0.36655640519E+02 0.33909268483E+02 0.29153433111E+02 0.23492167910E+02
 0.10150885297E+02 0.75883810714E+01 0.55296988490E+01 0.40436578134E+01 0.29766393175E+01
 0.22767757258E+01 0.18588916999E+01 0.16367760092E+01 0.15411666082E+01 0.15241885184E+01
 0.15558983188E+01 0.16182660531E+01 0.16996521767E+01 0.17910300797E+01 0.18841878230E+01
 0.19714676892E+01 0.20462172830E+01 0.21032228174E+01 0.21388438344E+01 0.21509509033E+01
 0.21388438344E+01 0.21032228174E+01 0.20462172830E+01 0.19714676892E+01 0.18841878230E+01
 0.17910300797E+01 0.16996521767E+01 0.16182660531E+01 0.15558983188E+01 0.15241885184E+01
 0.15411666082E+01 0.16367760092E+01 0.18588916999E+01 0.22767757258E+01 0.29766393175E+01
 0.40436578134E+01 0.55296988490E+01 0.75883813955E+01 0.10150886002E+02 0.13144352172E+02
 0.16298488868E+02 0.19162559834E+02 0.21191732746E+02 0.21928809528E+02 0.21191731918E+02
 0.19162558482E+02 0.16298487444E+02 0.13144351026E+02 0.59480487970E+01 0.45548238163E+01
 0.34622865752E+01 0.26548529560E+01 0.21096084220E+01 0.17752990080E+01 0.15946658430E+01
 0.15186384284E+01 0.15114541390E+01 0.15496268889E+01 0.16182660531E+01 0.17071628807E+01
 0.18078982951E+01 0.19124082353E+01 0.20128184747E+01 0.21019511672E+01 0.21738782412E+01
 0.22241990379E+01 0.22500574336E+01 0.22500574336E+01 0.22241990379E+01 0.21738782412E+01
 0.21019511672E+01 0.20128184747E+01 0.19124082353E+01 0.18078982951E+01 0.17071628807E+01
 0.16182660531E+01 0.15496268889E+01 0.15114541390E+01 0.15186384284E+01 0.15946658430E+01
 0.17752990080E+01 0.21096084220E+01 0.26548529560E+01 0.34622865752E+01 0.45548238163E+01
 0.59480489105E+01 0.75883813284E+01 0.93571325053E+01 0.11049485361E+02 0.12401696321E+02
 0.13158119789E+02 0.13158119631E+02 0.12401695916E+02 0.11049484865E+02 0.93571320795E+01
 0.75883810610E+01 0.36547017319E+01 0.29019044701E+01 0.23278478758E+01 0.19283461880E+01
 0.16770349088E+01 0.15397483158E+01 0.14848073495E+01 0.14877380987E+01 0.15316111615E+01
 0.16050516155E+01 0.16996521767E+01 0.18078982951E+01 0.19221202176E+01 0.20344449135E+01
 0.21373343742E+01 0.22242161956E+01 0.22899017506E+01 0.23307376951E+01 0.23445835540E+01
 0.23307376951E+01 0.22899017506E+01 0.22242161956E+01 0.21373343742E+01 0.20344449135E+01
 0.19221202176E+01 0.18078982951E+01 0.16996521767E+01 0.16050516155E+01 0.15316111615E+01
 0.14877380987E+01 0.14848073495E+01 0.15397483158E+01 0.16770349088E+01 0.19283461880E+01
 0.23278478758E+01 0.29019044701E+01 0.36547017319E+01 0.45548238163E+01 0.55296988490E+01
 0.65529952980E+01 0.74152953263E+01 0.80058594436E+01 0.82160642658E+01 0.80058593652E+01
 0.74152952089E+01 0.65529951905E+01 0.55296988490E+01 0.45548238163E+01 0.24153179608E+01
 0.20311535283E+01 0.17551944545E+01 0.15772648226E+01 0.14797440276E+01 0.14444160809E+01
 0.14562154459E+01 0.15041102093E+01 0.15801682438E+01 0.16779377967E+01 0.17910300797E+01
 0.19124082353E+01 0.20344449135E+01 0.21494671090E+01 0.22504131246E+01 0.23313508770E+01
 0.23877772059E+01 0.24167208769E+01 0.24167208769E+01 0.23877772059E+01 0.23313508770E+01
 0.22504131246E+01 0.21494671090E+01 0.20344449135E+01 0.19124082353E+01 0.17910300797E+01
 0.16779377967E+01 0.15801682438E+01 0.15041102093E+01 0.14562154459E+01 0.14444160809E+01
 0.14797440276E+01 0.15772648226E+01 0.17551944545E+01 0.20311535283E+01 0.24153179608E+01
 0.29019044701E+01 0.34622865752E+01 0.40436578134E+01 0.45755657481E+01 0.49834072229E+01
 0.52049710518E+01 0.52049710518E+01 0.49834072229E+01 0.45755657481E+01 0.40436578134E+01
 0.34622865752E+01 0.29019044701E+01 0.17876218211E+01 0.16066679845E+01 0.14871978091E+01
 0.14221651867E+01 0.14027395137E+01 0.14209279305E+01 0.14704721397E+01 0.15464626924E+01
 0.16443479530E+01 0.17589878039E+01 0.18841878230E+01 0.20128184747E+01 0.21373343742E+01
 0.22504131246E+01 0.23455197272E+01 0.24173234630E+01 0.24619507256E+01 0.24770823888E+01
 0.24619507256E+01 0.24173234630E+01 0.23455197272E+01 0.22504131246E+01 0.21373343742E+01
 0.20128184747E+01 0.18841878230E+01 0.17589878039E+01 0.16443479530E+01 0.15464626924E+01
 0.14704721397E+01 0.14209279305E+01 0.14027395137E+01 0.14221651867E+01 0.14871978091E+01
 0.16066679845E+01 0.17876218211E+01 0.20311535283E+01 0.23278478758E+01 0.26548529560E+01
 0.29766393175E+01 0.32503414777E+01 0.34346705657E+01 0.34997476580E+01 0.34346705657E+01
 0.32503414777E+01 0.29766393175E+01 0.26548529560E+01 0.23278478758E+01 0.20311535283E+01
 0.14921457059E+01 0.14146983862E+01 0.13732319214E+01 0.13647881063E+01 0.13861757169E+01
 0.14346326100E+01 0.15076549373E+01 0.16023725555E+01 0.17149105582E+01 0.18400736385E+01
 0.19714676892E+01 0.21019511672E+01 0.22242161956E+01 0.23313508770E+01 0.24173234630E+01
 0.24773626281E+01 0.25082046274E+01 0.25082046274E+01 0.24773626281E+01 0.24173234630E+01
 0.23313508770E+01 0.22242161956E+01 0.21019511672E+01 0.19714676892E+01 0.18400736385E+01
 0.17149105582E+01 0.16023725555E+01 0.15076549373E+01 0.14346326100E+01 0.13861757169E+01
 0.13647881063E+01 0.13732319214E+01 0.14146983862E+01 0.14921457059E+01 0.16066679845E+01
 0.17551944545E+01 0.19283461880E+01 0.21096084220E+01 0.22767757258E+01 0.24058190666E+01
 0.24762467738E+01 0.24762467738E+01 0.24058190666E+01 0.22767757258E+01 0.21096084220E+01
 0.19283461880E+01 0.17551944545E+01 0.16066679845E+01 0.13641846890E+01 0.13374542149E+01
 0.13348227474E+01 0.13560288084E+01 0.14006211257E+01 0.14678357526E+01 0.15561696080E+01
 0.16629316618E+01 0.17840058767E+01 0.19139261776E+01 0.20462172830E+01 0.21738782412E+01
 0.22899017506E+01 0.23877772059E+01 0.24619507256E+01 0.25082046274E+01 0.25239182058E+01
 0.25082046274E+01 0.24619507256E+01 0.23877772059E+01 0.22899017506E+01 0.21738782412E+01
 0.20462172830E+01 0.19139261776E+01 0.17840058767E+01 0.16629316618E+01 0.15561696080E+01
 0.14678357526E+01 0.14006211257E+01 0.13560288084E+01 0.13348227474E+01 0.13374542149E+01
 0.13641846890E+01 0.14146983862E+01 0.14871978091E+01 0.15772648226E+01 0.16770349088E+01
 0.17752990080E+01 0.18588916999E+01 0.19152008394E+01 0.19350848387E+01 0.19152008394E+01
 0.18588916999E+01 0.17752990080E+01 0.16770349088E+01 0.15772648226E+01 0.14871978091E+01
 0.14146983862E+01 0.13178112724E+01 0.13162351967E+01 0.13340574947E+01 0.13721921266E+01
 0.14310142322E+01 0.15100462468E+01 0.16076262956E+01 0.17207085789E+01 0.18448694256E+01
 0.19745129911E+01 0.21032228174E+01 0.22241990379E+01 0.23307376951E+01 0.24167208769E+01
 0.24770823888E+01 0.25082046274E+01 0.25082046274E+01 0.24770823888E+01 0.24167208769E+01
 0.23307376951E+01 0.22241990379E+01 0.21032228174E+01 0.19745129911E+01 0.18448694256E+01
 0.17207085789E+01 0.16076262956E+01 0.15100462468E+01 0.14310142322E+01 0.13721921266E+01
 0.13340574947E+01 0.13162351967E+01 0.13178112724E+01 0.13374542149E+01 0.13732319214E+01
 0.14221651867E+01 0.14797440276E+01 0.15397483158E+01 0.15946658430E+01 0.16367760092E+01
 0.16596597139E+01 0.16596597139E+01 0.16367760092E+01 0.15946658430E+01 0.15397483158E+01
 0.14797440276E+01 0.14221651867E+01 0.13732319214E+01 0.13374542149E+01 0.13116814723E+01
 0.13232689472E+01 0.13526273961E+01 0.14008038851E+01 0.14680332485E+01 0.15534885963E+01
 0.16551031019E+01 0.17695115717E+01 0.18921254103E+01 0.20173375258E+01 0.21388438344E+01
 0.22500574336E+01 0.23445835540E+01 0.24167208769E+01 0.24619507256E+01 0.24773626281E+01
 0.24619507256E+01 0.24167208769E+01 0.23445835540E+01 0.22500574336E+01 0.21388438344E+01
 0.20173375258E+01 0.18921254103E+01 0.17695115717E+01 0.16551031019E+01 0.15534885963E+01
 0.14680332485E+01 0.14008038851E+01 0.13526273961E+01 0.13232689472E+01 0.13116814723E+01
 0.13162351967E+01 0.13348227474E+01 0.13647881063E+01 0.14027395137E+01 0.14444160809E+01
 0.14848073495E+01 0.15186384284E+01 0.15411666082E+01 0.15490739977E+01 0.15411666082E+01
 0.15186384284E+01 0.14848073495E+01 0.14444160809E+01 0.14027395137E+01 0.13647881063E+01
 0.13348227474E+01 0.13162351967E+01 0.13261470797E+01 0.13446741375E+01 0.13802648538E+01
 0.14336194280E+01 0.15045468761E+01 0.15918102778E+01 0.16930253402E+01 0.18046334562E+01
 0.19219730466E+01 0.20394701333E+01 0.21509509033E+01 0.22500574336E+01 0.23307376951E+01
 0.23877772059E+01 0.24173234630E+01 0.24173234630E+01 0.23877772059E+01 0.23307376951E+01
 0.22500574336E+01 0.21509509033E+01 0.20394701333E+01 0.19219730466E+01 0.18046334562E+01
 0.16930253402E+01 0.15918102778E+01 0.15045468761E+01 0.14336194280E+01 0.13802648538E+01
 0.13446741375E+01 0.13261470797E+01 0.13232689472E+01 0.13340574947E+01 0.13560288084E+01
 0.13861757169E+01 0.14209279305E+01 0.14562154459E+01 0.14877380987E+01 0.15114541390E+01
 0.15241885184E+01 0.15241885184E+01 0.15114541390E+01 0.14877380987E+01 0.14562154459E+01
 0.14209279305E+01 0.13861757169E+01 0.13560288084E+01 0.13340574947E+01 0.13232689472E+01
 0.13505375026E+01 0.13718569479E+01 0.14096390067E+01 0.14641551405E+01 0.15348242969E+01
 0.16200983866E+01 0.17173738682E+01 0.18229640407E+01 0.19321694308E+01 0.20394701333E+01
 0.21388438344E+01 0.22241990379E+01 0.22899017506E+01 0.23313508770E+01 0.23455197272E+01
 0.23313508770E+01 0.22899017506E+01 0.22241990379E+01 0.21388438344E+01 0.20394701333E+01
 0.19321694308E+01 0.18229640407E+01 0.17173738682E+01 0.16200983866E+01 0.15348242969E+01
 0.14641551405E+01 0.14096390067E+01 0.13718569479E+01 0.13505375026E+01 0.13446741375E+01
 0.13526273961E+01 0.13721921266E+01 0.14006211257E+01 0.14346326100E+01 0.14704721397E+01
 0.15041102093E+01 0.15316111615E+01 0.15496268889E+01 0.15558983188E+01 0.15496268889E+01
 0.15316111615E+01 0.15041102093E+01 0.14704721397E+01 0.14346326100E+01 0.14006211257E+01
 0.13721921266E+01 0.13526273961E+01 0.13446741375E+01 0.13774377453E+01 0.13982575528E+01
 0.14349286959E+01 0.14873614683E+01 0.15546690850E+01 0.16350601062E+01 0.17257543702E+01
 0.18229640407E+01 0.19219730466E+01 0.20173375258E+01 0.21032228174E+01 0.21738782412E+01
 0.22242161956E+01 0.22504131246E+01 0.22504131246E+01 0.22242161956E+01 0.21738782412E+01
 0.21032228174E+01 0.20173375258E+01 0.19219730466E+01 0.18229640407E+01 0.17257543702E+01
 0.16350601062E+01 0.15546690850E+01 0.14873614683E+01 0.14349286959E+01 0.13982575528E+01
 0.13774377453E+01 0.13718569479E+01 0.13802648538E+01 0.14008038851E+01 0.14310142322E+01
 0.14678357526E+01 0.15076549373E+01 0.15464626924E+01 0.15801682438E+01 0.16050516155E+01
 0.16182660531E+01 0.16182660531E+01 0.16050516155E+01 0.15801682438E+01 0.15464626924E+01
 0.15076549373E+01 0.14678357526E+01 0.14310142322E+01 0.14008038851E+01 0.13802648538E+01
 0.13718569479E+01 0.14009976491E+01 0.14187628600E+01 0.14518331801E+01 0.14998167159E+01
 0.15615621138E+01 0.16350601062E+01 0.17173738682E+01 0.18046334562E+01 0.18921254103E+01
 0.19745129911E+01 0.20462172830E+01 0.21019511672E+01 0.21373343742E+01 0.21494671090E+01
 0.21373343742E+01 0.21019511672E+01 0.20462172830E+01 0.19745129911E+01 0.18921254103E+01
 0.18046334562E+01 0.17173738682E+01 0.16350601062E+01 0.15615621138E+01 0.14998167159E+01
 0.14518331801E+01 0.14187628600E+01 0.14009976491E+01 0.13982575528E+01 0.14096390067E+01
 0.14336194280E+01 0.14680332485E+01 0.15100462468E+01 0.15561696080E+01 0.16023725555E+01
 0.16443479530E+01 0.16779377967E+01 0.16996521767E+01 0.17071628807E+01 0.16996521767E+01
 0.16779377967E+01 0.16443479530E+01 0.16023725555E+01 0.15561696080E+01 0.15100462468E+01
 0.14680332485E+01 0.14336194280E+01 0.14096390067E+01 0.13982575528E+01 0.14168825442E+01
 0.14298860114E+01 0.14577549527E+01 0.14998167159E+01 0.15546690850E+01 0.16200983866E+01
 0.16930253402E+01 0.17695115717E+01 0.18448694256E+01 0.19139261776E+01 0.19714676892E+01
 0.20128184747E+01 0.20344449135E+01 0.20344449135E+01 0.20128184747E+01 0.19714676892E+01
 0.19139261776E+01 0.18448694256E+01 0.17695115717E+01 0.16930253402E+01 0.16200983866E+01
 0.15546690850E+01 0.14998167159E+01 0.14577549527E+01 0.14298860114E+01 0.14168825442E+01
 0.14187628600E+01 0.14349286959E+01 0.14641551405E+01 0.15045468761E+01 0.15534885963E+01
 0.16076262956E+01 0.16629316618E+01 0.17149105582E+01 0.17589878039E+01 0.17910300797E+01
 0.18078982951E+01 0.18078982951E+01 0.17910300797E+01 0.17589878039E+01 0.17149105582E+01
 0.16629316618E+01 0.16076262956E+01 0.15534885963E+01 0.15045468761E+01 0.14641551405E+01
 0.14349286959E+01 0.14187628600E+01 0.14224676452E+01 0.14298860114E+01 0.14518331801E+01
 0.14873614683E+01 0.15348242969E+01 0.15918102778E+01 0.16551031019E+01 0.17207085789E+01
 0.17840058767E+01 0.18400736385E+01 0.18841878230E+01 0.19124082353E+01 0.19221202176E+01
 0.19124082353E+01 0.18841878230E+01 0.18400736385E+01 0.17840058767E+01 0.17207085789E+01
 0.16551031019E+01 0.15918102778E+01 0.15348242969E+01 0.14873614683E+01 0.14518331801E+01
 0.14298860114E+01 0.14224676452E+01 0.14298860114E+01 0.14518331801E+01 0.14873614683E+01
 0.15348242969E+01 0.15918102778E+01 0.16551031019E+01 0.17207085789E+01 0.17840058767E+01
 0.18400736385E+01 0.18841878230E+01 0.19124082353E+01 0.19221202176E+01 0.19124082353E+01
 0.18841878230E+01 0.18400736385E+01 0.17840058767E+01 0.17207085789E+01 0.16551031019E+01
 0.15918102778E+01 0.15348242969E+01 0.14873614683E+01 0.14518331801E+01 0.14298860114E+01
 0.14168825442E+01 0.14187628600E+01 0.14349286959E+01 0.14641551405E+01 0.15045468761E+01
 0.15534885963E+01 0.16076262956E+01 0.16629316618E+01 0.17149105582E+01 0.17589878039E+01
 0.17910300797E+01 0.18078982951E+01 0.18078982951E+01 0.17910300797E+01 0.17589878039E+01
 0.17149105582E+01 0.16629316618E+01 0.16076262956E+01 0.15534885963E+01 0.15045468761E+01
 0.14641551405E+01 0.14349286959E+01 0.14187628600E+01 0.14168825442E+01 0.14298860114E+01
 0.14577549527E+01 0.14998167159E+01 0.15546690850E+01 0.16200983866E+01 0.16930253402E+01
 0.17695115717E+01 0.18448694256E+01 0.19139261776E+01 0.19714676892E+01 0.20128184747E+01
 0.20344449135E+01 0.20344449135E+01 0.20128184747E+01 0.19714676892E+01 0.19139261776E+01
 0.18448694256E+01 0.17695115717E+01 0.16930253402E+01 0.16200983866E+01 0.15546690850E+01
 0.14998167159E+01 0.14577549527E+01 0.14298860114E+01 0.14009976491E+01 0.13982575528E+01
 0.14096390067E+01 0.14336194280E+01 0.14680332485E+01 0.15100462468E+01 0.15561696080E+01
 0.16023725555E+01 0.16443479530E+01 0.16779377967E+01 0.16996521767E+01 0.17071628807E+01
 0.16996521767E+01 0.16779377967E+01 0.16443479530E+01 0.16023725555E+01 0.15561696080E+01
 0.15100462468E+01 0.14680332485E+01 0.14336194280E+01 0.14096390067E+01 0.13982575528E+01
 0.14009976491E+01 0.14187628600E+01 0.14518331801E+01 0.14998167159E+01 0.15615621138E+01
 0.16350601062E+01 0.17173738682E+01 0.18046334562E+01 0.18921254103E+01 0.19745129911E+01
 0.20462172830E+01 0.21019511672E+01 0.21373343742E+01 0.21494671090E+01 0.21373343742E+01
 0.21019511672E+01 0.20462172830E+01 0.19745129911E+01 0.18921254103E+01 0.18046334562E+01
 0.17173738682E+01 0.16350601062E+01 0.15615621138E+01 0.14998167159E+01 0.14518331801E+01
 0.14187628600E+01 0.13774377453E+01 0.13718569479E+01 0.13802648538E+01 0.14008038851E+01
 0.14310142322E+01 0.14678357526E+01 0.15076549373E+01 0.15464626924E+01 0.15801682438E+01
 0.16050516155E+01 0.16182660531E+01 0.16182660531E+01 0.16050516155E+01 0.15801682438E+01
 0.15464626924E+01 0.15076549373E+01 0.14678357526E+01 0.14310142322E+01 0.14008038851E+01
 0.13802648538E+01 0.13718569479E+01 0.13774377453E+01 0.13982575528E+01 0.14349286959E+01
 0.14873614683E+01 0.15546690850E+01 0.16350601062E+01 0.17257543702E+01 0.18229640407E+01
 0.19219730466E+01 0.20173375258E+01 0.21032228174E+01 0.21738782412E+01 0.22242161956E+01
 0.22504131246E+01 0.22504131246E+01 0.22242161956E+01 0.21738782412E+01 0.21032228174E+01
 0.20173375258E+01 0.19219730466E+01 0.18229640407E+01 0.17257543702E+01 0.16350601062E+01
 0.15546690850E+01 0.14873614683E+01 0.14349286959E+01 0.13982575528E+01 0.13505375026E+01
 0.13446741375E+01 0.13526273961E+01 0.13721921266E+01 0.14006211257E+01 0.14346326100E+01
 0.14704721397E+01 0.15041102093E+01 0.15316111615E+01 0.15496268889E+01 0.15558983188E+01
 0.15496268889E+01 0.15316111615E+01 0.15041102093E+01 0.14704721397E+01 0.14346326100E+01
 0.14006211257E+01 0.13721921266E+01 0.13526273961E+01 0.13446741375E+01 0.13505375026E+01
 0.13718569479E+01 0.14096390067E+01 0.14641551405E+01 0.15348242969E+01 0.16200983866E+01
 0.17173738682E+01 0.18229640407E+01 0.19321694308E+01 0.20394701333E+01 0.21388438344E+01
 0.22241990379E+01 0.22899017506E+01 0.23313508770E+01 0.23455197272E+01 0.23313508770E+01
 0.22899017506E+01 0.22241990379E+01 0.21388438344E+01 0.20394701333E+01 0.19321694308E+01
 0.18229640407E+01 0.17173738682E+01 0.16200983866E+01 0.15348242969E+01 0.14641551405E+01
 0.14096390067E+01 0.13718569479E+01 0.13261470797E+01 0.13232689472E+01 0.13340574947E+01
 0.13560288084E+01 0.13861757169E+01 0.14209279305E+01 0.14562154459E+01 0.14877380987E+01
 0.15114541390E+01 0.15241885184E+01 0.15241885184E+01 0.15114541390E+01 0.14877380987E+01
 0.14562154459E+01 0.14209279305E+01 0.13861757169E+01 0.13560288084E+01 0.13340574947E+01
 0.13232689472E+01 0.13261470797E+01 0.13446741375E+01 0.13802648538E+01 0.14336194280E+01
 0.15045468761E+01 0.15918102778E+01 0.16930253402E+01 0.18046334562E+01 0.19219730466E+01
 0.20394701333E+01 0.21509509033E+01 0.22500574336E+01 0.23307376951E+01 0.23877772059E+01
 0.24173234630E+01 0.24173234630E+01 0.23877772059E+01 0.23307376951E+01 0.22500574336E+01
 0.21509509033E+01 0.20394701333E+01 0.19219730466E+01 0.18046334562E+01 0.16930253402E+01
 0.15918102778E+01 0.15045468761E+01 0.14336194280E+01 0.13802648538E+01 0.13446741375E+01
 0.13116814723E+01 0.13162351967E+01 0.13348227474E+01 0.13647881063E+01 0.14027395137E+01
 0.14444160809E+01 0.14848073495E+01 0.15186384284E+01 0.15411666082E+01 0.15490739977E+01
 0.15411666082E+01 0.15186384284E+01 0.14848073495E+01 0.14444160809E+01 0.14027395137E+01
 0.13647881063E+01 0.13348227474E+01 0.13162351967E+01 0.13116814723E+01 0.13232689472E+01
 0.13526273961E+01 0.14008038851E+01 0.14680332485E+01 0.15534885963E+01 0.16551031019E+01
 0.17695115717E+01 0.18921254103E+01 0.20173375258E+01 0.21388438344E+01 0.22500574336E+01
 0.23445835540E+01 0.24167208769E+01 0.24619507256E+01 0.24773626281E+01 0.24619507256E+01
 0.24167208769E+01 0.23445835540E+01 0.22500574336E+01 0.21388438344E+01 0.20173375258E+01
 0.18921254103E+01 0.17695115717E+01 0.16551031019E+01 0.15534885963E+01 0.14680332485E+01
 0.14008038851E+01 0.13526273961E+01 0.13232689472E+01 0.13178112724E+01 0.13374542149E+01
 0.13732319214E+01 0.14221651867E+01 0.14797440276E+01 0.15397483158E+01 0.15946658430E+01
 0.16367760092E+01 0.16596597139E+01 0.16596597139E+01 0.16367760092E+01 0.15946658430E+01
 0.15397483158E+01 0.14797440276E+01 0.14221651867E+01 0.13732319214E+01 0.13374542149E+01
 0.13178112724E+01 0.13162351967E+01 0.13340574947E+01 0.13721921266E+01 0.14310142322E+01
 0.15100462468E+01 0.16076262956E+01 0.17207085789E+01 0.18448694256E+01 0.19745129911E+01
 0.21032228174E+01 0.22241990379E+01 0.23307376951E+01 0.24167208769E+01 0.24770823888E+01
 0.25082046274E+01 0.25082046274E+01 0.24770823888E+01 0.24167208769E+01 0.23307376951E+01
 0.22241990379E+01 0.21032228174E+01 0.19745129911E+01 0.18448694256E+01 0.17207085789E+01
 0.16076262956E+01 0.15100462468E+01 0.14310142322E+01 0.13721921266E+01 0.13340574947E+01
 0.13162351967E+01 0.13641846890E+01 0.14146983862E+01 0.14871978091E+01 0.15772648226E+01
 0.16770349088E+01 0.17752990080E+01 0.18588916999E+01 0.19152008394E+01 0.19350848387E+01
 0.19152008394E+01 0.18588916999E+01 0.17752990080E+01 0.16770349088E+01 0.15772648226E+01
 0.14871978091E+01 0.14146983862E+01 0.13641846890E+01 0.13374542149E+01 0.13348227474E+01
 0.13560288084E+01 0.14006211257E+01 0.14678357526E+01 0.15561696080E+01 0.16629316618E+01
 0.17840058767E+01 0.19139261776E+01 0.20462172830E+01 0.21738782412E+01 0.22899017506E+01
 0.23877772059E+01 0.24619507256E+01 0.25082046274E+01 0.25239182058E+01 0.25082046274E+01
 0.24619507256E+01 0.23877772059E+01 0.22899017506E+01 0.21738782412E+01 0.20462172830E+01
 0.19139261776E+01 0.17840058767E+01 0.16629316618E+01 0.15561696080E+01 0.14678357526E+01
 0.14006211257E+01 0.13560288084E+01 0.13348227474E+01 0.13374542149E+01 0.14921457059E+01
 0.16066679845E+01 0.17551944545E+01 0.19283461880E+01 0.21096084220E+01 0.22767757258E+01
 0.24058190666E+01 0.24762467738E+01 0.24762467738E+01 0.24058190666E+01 0.22767757258E+01
 0.21096084220E+01 0.19283461880E+01 0.17551944545E+01 0.16066679845E+01 0.14921457059E+01
 0.14146983862E+01 0.13732319214E+01 0.13647881063E+01 0.13861757169E+01 0.14346326100E+01
 0.15076549373E+01 0.16023725555E+01 0.17149105582E+01 0.18400736385E+01 0.19714676892E+01
 0.21019511672E+01 0.22242161956E+01 0.23313508770E+01 0.24173234630E+01 0.24773626281E+01
 0.25082046274E+01 0.25082046274E+01 0.24773626281E+01 0.24173234630E+01 0.23313508770E+01
 0.22242161956E+01 0.21019511672E+01 0.19714676892E+01 0.18400736385E+01 0.17149105582E+01
 0.16023725555E+01 0.15076549373E+01 0.14346326100E+01 0.13861757169E+01 0.13647881063E+01