unknown system                          
   1.00000000000000     
     3.459762   -0.000000    1.997495
     1.153254    3.261896    1.997495
    -0.000000   -0.000000    3.994989
   Na   Cl
     1     1
Direct
  0.000000  0.000000  0.000000
  0.500000  0.500000  0.500000
 
   48   48   48
 0.26659282779E+06 0.81762353593E+04 0.49888385383E+03 0.26206321533E+03 0.16541057562E+03
 0.89343553967E+02 0.44752368538E+02 0.21675468175E+02 0.10346143251E+02 0.49126636662E+01
 0.23314427831E+01 0.11090217399E+01 0.52882150896E+00 0.25317945491E+00 0.12143259956E+00
 0.58488229275E-01 0.28211246769E-01 0.13718825988E-01 0.66561478202E-02 0.32899577728E-02
 0.15899030732E-02 0.82320196036E-03 0.39499470992E-03 0.26324688336E-03 0.16875679830E-03
 0.26324688338E-03 0.39499471009E-03 0.82320196033E-03 0.15899030732E-02 0.32899577729E-02
 0.66561478202E-02 0.13718825988E-01 0.28211246769E-01 0.58488229275E-01 0.12143259956E+00
 0.25317945491E+00 0.52882150896E+00 0.11090217399E+01 0.23314427831E+01 0.49126636662E+01
 0.10346143251E+02 0.21675468175E+02 0.44752368538E+02 0.89343553967E+02 0.16541057562E+03
 0.26206321533E+03 0.49888385383E+03 0.81762353593E+04 0.81762329997E+04 0.85140528083E+03
 0.29820176387E+03 0.20306150170E+03 0.11703747172E+03 0.60691081797E+02 0.29953063952E+02
 0.14449021748E+02 0.69013155620E+01 0.32860839649E+01 0.15652978791E+01 0.74724812807E+00
 0.35791042802E+00 0.17165500328E+00 0.82728132273E-01 0.39848860921E-01 0.19372536088E-01
 0.93821124832E-02 0.46261725497E-02 0.22458943722E-02 0.11335573220E-02 0.55748236082E-03
 0.30918628499E-03 0.19967142639E-03 0.20233522813E-03 0.31047666675E-03 0.55470354272E-03
 0.11346221321E-02 0.22440278952E-02 0.46286354744E-02 0.93809176269E-02 0.19373564176E-01
 0.39848340179E-01 0.82728287602E-01 0.17165587486E+00 0.35790848840E+00 0.74725158630E+00
 0.15652919764E+01 0.32860995626E+01 0.69013081712E+01 0.14449060690E+02 0.29953040615E+02
 0.60691157062E+02 0.11703749932E+03 0.20306152972E+03 0.29820188616E+03 0.85140541185E+03
 0.81762349177E+04 0.49888372287E+03 0.29820175256E+03 0.21697666328E+03 0.13433249995E+03
 0.73423588677E+02 0.37549775024E+02 0.18557287755E+02 0.90138675054E+01 0.43436835613E+01
 0.20869159800E+01 0.10029633450E+01 0.48250255974E+00 0.23261247498E+00 0.11233923902E+00
 0.54354561706E-01 0.26387861894E-01 0.12852689734E-01 0.62920204799E-02 0.30923775772E-02
 0.15254667337E-02 0.76515911056E-03 0.39249180813E-03 0.23455182096E-03 0.18240258896E-03
 0.23100544804E-03 0.39361843904E-03 0.76692509652E-03 0.15262792882E-02 0.30918058449E-02
 0.62908313302E-02 0.12852752987E-01 0.26387497505E-01 0.54354798833E-01 0.11233835948E+00
 0.23261378061E+00 0.48250104898E+00 0.10029595739E+01 0.20869169754E+01 0.43437113149E+01
 0.90138774842E+01 0.18557329812E+02 0.37549768289E+02 0.73423645715E+02 0.13433251002E+03
 0.21697667647E+03 0.29820179057E+03 0.49888382937E+03 0.85140510719E+03 0.26206319086E+03
 0.20306148320E+03 0.13433249204E+03 0.78337181856E+02 0.42184995867E+02 0.21675394428E+02
 0.10840054367E+02 0.53398880024E+01 0.26093522091E+01 0.12705949341E+01 0.61767948865E+00
 0.30052019827E+00 0.14609373080E+00 0.71187879798E-01 0.34673084429E-01 0.16985838082E-01
 0.83142105216E-02 0.41132890226E-02 0.20208249635E-02 0.10182771876E-02 0.50887324170E-03
 0.28243693513E-03 0.18209195331E-03 0.18465286371E-03 0.28140221428E-03 0.51122180613E-03
 0.10123711495E-02 0.20247179987E-02 0.41100693110E-02 0.83191333861E-02 0.16982355977E-01
 0.34676781365E-01 0.71185138726E-01 0.14609630225E+00 0.30051876589E+00 0.61768303199E+00
 0.12705994417E+01 0.26093440016E+01 0.53398792598E+01 0.10840037861E+02 0.21675420809E+02
 0.42185020287E+02 0.78337253575E+02 0.13433254970E+03 0.20306152680E+03 0.26206314297E+03
 0.29820177172E+03 0.29820185601E+03 0.16541054446E+03 0.11703745127E+03 0.73423579021E+02
 0.42184992916E+02 0.22848144543E+02 0.11912440445E+02 0.60628226511E+01 0.30403501739E+01
 0.15111430082E+01 0.74725873546E+00 0.36860069258E+00 0.18126137898E+00 0.89243724451E-01
 0.43777042693E-01 0.21636345076E-01 0.10600961406E-01 0.53170515810E-02 0.25738828408E-02
 0.13460438100E-02 0.61707717742E-03 0.38147844882E-03 0.16346803567E-03 0.20007938095E-03
 0.16551984355E-03 0.37921721220E-03 0.61845799658E-03 0.13474239696E-02 0.25737536792E-02
 0.53167593176E-02 0.10599295288E-01 0.21636732859E-01 0.43775608846E-01 0.89245204280E-01
 0.18125903781E+00 0.36859961407E+00 0.74725537569E+00 0.15111611963E+01 0.30403547778E+01
 0.60628436768E+01 0.11912425350E+02 0.22848107695E+02 0.42185006719E+02 0.73423507212E+02
 0.11703748252E+03 0.16541063770E+03 0.20306151061E+03 0.21697664746E+03 0.20306149503E+03
 0.89343528769E+02 0.60691066316E+02 0.37549767299E+02 0.21675391335E+02 0.11912439579E+02
 0.63286137733E+01 0.32861446406E+01 0.16803201727E+01 0.85063271378E+00 0.42764506894E+00
 0.21387531604E+00 0.10670560097E+00 0.53031370391E-01 0.26410716623E-01 0.13106998510E-01
 0.65633817323E-02 0.32547844896E-02 0.16485463651E-02 0.81638700259E-03 0.42973939361E-03
 0.22986330760E-03 0.15620054684E-03 0.15743677971E-03 0.22546624793E-03 0.43370123578E-03
 0.81423341616E-03 0.16490284484E-02 0.32524516474E-02 0.65664686703E-02 0.13105357297E-01
 0.26415002807E-01 0.53026786552E-01 0.10671225900E+00 0.21387123630E+00 0.42765550417E+00
 0.85061501783E+00 0.16803359686E+01 0.32861114307E+01 0.63286311176E+01 0.11912454911E+02
 0.21675398987E+02 0.37549882757E+02 0.60691122936E+02 0.89343551688E+02 0.11703747025E+03
 0.13433252440E+03 0.13433247681E+03 0.11703746659E+03 0.44752352272E+02 0.29953054073E+02
 0.18557282595E+02 0.10840052038E+02 0.60628217697E+01 0.32861444004E+01 0.17412805135E+01
 0.90823711736E+00 0.46809049637E+00 0.23922608744E+00 0.12148290057E+00 0.61373547783E-01
 0.30935007575E-01 0.15560455419E-01 0.78425283947E-02 0.39431554215E-02 0.19957771924E-02
 0.10033258954E-02 0.51851413813E-03 0.26771496130E-03 0.16514729711E-03 0.12629294038E-03
 0.16644561669E-03 0.26957133070E-03 0.51695850164E-03 0.10012977789E-02 0.20004298737E-02
 0.39396209140E-02 0.78467370871E-02 0.15552764107E-01 0.30942351393E-01 0.61363508853E-01
 0.12149112386E+00 0.23920987247E+00 0.46811591441E+00 0.90822190153E+00 0.17413219764E+01
 0.32861220551E+01 0.60628197140E+01 0.10840080993E+02 0.18557202288E+02 0.29953085015E+02
 0.44752407361E+02 0.60691115841E+02 0.73423491119E+02 0.78337230165E+02 0.73423619965E+02
 0.60691134486E+02 0.21675458704E+02 0.14449015969E+02 0.90138643704E+01 0.53398864783E+01
 0.30403495146E+01 0.16803199283E+01 0.90823705129E+00 0.48254099927E+00 0.25311889555E+00
 0.13143784541E+00 0.67708227170E-01 0.34703379089E-01 0.17713603169E-01 0.90382896216E-02
 0.45980049909E-02 0.23464499040E-02 0.11924427875E-02 0.61230700957E-03 0.31866872147E-03
 0.17698088909E-03 0.12328856882E-03 0.11728858149E-03 0.18192995150E-03 0.31081853976E-03
 0.62133596257E-03 0.11861026149E-02 0.23513361496E-02 0.45901213631E-02 0.90476804721E-02
 0.17705029236E-01 0.34715987998E-01 0.67697703838E-01 0.13145760286E+00 0.25309081652E+00
 0.48256480247E+00 0.90819935635E+00 0.16803457280E+01 0.30403675200E+01 0.53398359914E+01
 0.90139767890E+01 0.14449011149E+02 0.21675417613E+02 0.29953081345E+02 0.37549873929E+02
 0.42184992805E+02 0.42185003421E+02 0.37549751737E+02 0.29953027067E+02 0.10346138022E+02
 0.69013123403E+01 0.43436817607E+01 0.26093512855E+01 0.15111425754E+01 0.85063252974E+00
 0.46809042887E+00 0.25311887731E+00 0.13493956337E+00 0.71160799386E-01 0.37196641246E-01
 0.19337816584E-01 0.10005590706E-01 0.51722797713E-02 0.26610386013E-02 0.13738809261E-02
 0.70494084358E-03 0.36937647255E-03 0.19679749244E-03 0.12013896294E-03 0.95948376318E-04
 0.11969706286E-03 0.19810312059E-03 0.36907618595E-03 0.70571880142E-03 0.13686821198E-02
 0.26696768442E-02 0.51643258472E-02 0.10015416980E-01 0.19323268516E-01 0.37208336770E-01
 0.71139201670E-01 0.13496812435E+00 0.25309468769E+00 0.46812731803E+00 0.85062512924E+00
 0.15111097809E+01 0.26094348649E+01 0.43435738819E+01 0.69013659825E+01 0.10346214644E+02
 0.14449009343E+02 0.18557197773E+02 0.21675391448E+02 0.22848097825E+02 0.21675410177E+02
 0.18557320138E+02 0.14449053104E+02 0.49126608632E+01 0.32860822174E+01 0.20869149772E+01
 0.12705944000E+01 0.74725847001E+00 0.42764494686E+00 0.23922603586E+00 0.13143782655E+00
 0.71160794244E-01 0.38069456466E-01 0.20201710581E-01 0.10645279685E-01 0.55941360835E-02
 0.29166823987E-02 0.15288428197E-02 0.78772187916E-03 0.42033687652E-03 0.21378056852E-03
 0.13164275141E-03 0.79376667035E-04 0.94873715677E-04 0.11671094602E-03 0.22987382192E-03
 0.40175526634E-03 0.80699068257E-03 0.15124182307E-02 0.29321523041E-02 0.55746640719E-02
 0.10666017028E-01 0.20185269336E-01 0.38096136242E-01 0.71131085007E-01 0.13146128015E+00
 0.23919763546E+00 0.42764059189E+00 0.74732099240E+00 0.12704973302E+01 0.20870593820E+01
 0.32860411938E+01 0.49125662782E+01 0.69013651131E+01 0.90139745598E+01 0.10840077112E+02
 0.11912449525E+02 0.11912419098E+02 0.10840031650E+02 0.90138721199E+01 0.69013040802E+01
 0.23314413081E+01 0.15652969496E+01 0.10029628009E+01 0.61767918895E+00 0.36860053746E+00
 0.21387524022E+00 0.12148286606E+00 0.67708212693E-01 0.37196635969E-01 0.20201709165E-01
 0.10877181809E-01 0.58119154574E-02 0.30901658713E-02 0.16338758277E-02 0.86317594670E-03
 0.45311765744E-03 0.24279714997E-03 0.13166008824E-03 0.83760528437E-04 0.65526871278E-04
 0.82556019344E-04 0.13149538761E-03 0.24203169256E-03 0.45624089680E-03 0.86024340357E-03
 0.16325402139E-02 0.30937200216E-02 0.58116456588E-02 0.10874651521E-01 0.20195620669E-01
 0.37200416866E-01 0.67713796835E-01 0.12147454756E+00 0.21392103208E+00 0.36849152389E+00
 0.61781814407E+00 0.10028126828E+01 0.15653028330E+01 0.23315991914E+01 0.32860407789E+01
 0.43435728015E+01 0.53398340480E+01 0.60628168930E+01 0.63286276433E+01 0.60628399745E+01
 0.53398757923E+01 0.43437084340E+01 0.32860974001E+01 0.11090209713E+01 0.74724763815E+00
 0.48250226800E+00 0.30052003318E+00 0.18126129052E+00 0.10670555602E+00 0.61373526030E-01
 0.34703369250E-01 0.19337812457E-01 0.10645278166E-01 0.58119150487E-02 0.31456021341E-02
 0.16961567272E-02 0.90461993395E-03 0.48562506391E-03 0.25737485800E-03 0.14213737581E-03
 0.80545728457E-04 0.58371253026E-04 0.56979947937E-04 0.83856853393E-04 0.13992675797E-03
 0.26055455496E-03 0.47974205954E-03 0.91056792863E-03 0.16944802590E-02 0.31452245619E-02
 0.58115681748E-02 0.10650648418E-01 0.19336590525E-01 0.34697256864E-01 0.61385045441E-01
 0.10666215628E+00 0.18135866454E+00 0.30042251722E+00 0.48256350049E+00 0.74735632853E+00
 0.11088002945E+01 0.15653026357E+01 0.20870588610E+01 0.26094339079E+01 0.30403660822E+01
 0.32861201986E+01 0.32861093338E+01 0.30403526808E+01 0.26093421209E+01 0.20869154517E+01
 0.15652908497E+01 0.52882111091E+00 0.35791017233E+00 0.23261231943E+00 0.14609364143E+00
 0.89243675318E-01 0.53031344520E-01 0.30934994653E-01 0.17713596972E-01 0.10005587923E-01
 0.55941349222E-02 0.30901654412E-02 0.16961566054E-02 0.91927987710E-03 0.50182049606E-03
 0.26781385761E-03 0.14915069179E-03 0.81388437933E-04 0.54972145523E-04 0.42466280286E-04
 0.54337989998E-04 0.80372279531E-04 0.14927306824E-03 0.26687583873E-03 0.50506343599E-03
 0.91663266607E-03 0.16938759017E-02 0.30910864168E-02 0.55921816303E-02 0.10007222166E-01
 0.17717515568E-01 0.30924504440E-01 0.53065448314E-01 0.89166761089E-01 0.14614868007E+00
 0.23260745808E+00 0.35778241336E+00 0.52896574969E+00 0.74735623472E+00 0.10028124336E+01
 0.12704968627E+01 0.15111090593E+01 0.16803447604E+01 0.17413208341E+01 0.16803347568E+01
 0.15111600421E+01 0.12705984402E+01 0.10029587805E+01 0.74725100248E+00 0.25317924873E+00
 0.17165487016E+00 0.11233915747E+00 0.71187831707E-01 0.43777015648E-01 0.26410702062E-01
 0.15560447802E-01 0.90382858358E-02 0.51722779479E-02 0.29166815708E-02 0.16338754847E-02
 0.90461980993E-03 0.50182045957E-03 0.27185840928E-03 0.15269120508E-03 0.82916573475E-04
 0.52489896752E-04 0.34897018102E-04 0.38012264785E-04 0.49596780231E-04 0.87354583415E-04
 0.14860759422E-03 0.27744716402E-03 0.49342705457E-03 0.91230745568E-03 0.16355577376E-02
 0.29199165114E-02 0.51643327228E-02 0.90360593558E-02 0.15569358770E-01 0.26386685578E-01
 0.43839720506E-01 0.71156143572E-01 0.11233185890E+00 0.17175078171E+00 0.25311235141E+00
 0.35778236863E+00 0.48256338062E+00 0.61781791683E+00 0.74732063338E+00 0.85062463384E+00
 0.90819874718E+00 0.90822122627E+00 0.85061433814E+00 0.74725475107E+00 0.61768250506E+00
 0.48250063753E+00 0.35790818802E+00 0.12143249393E+00 0.82728063274E-01 0.54354518637E-01
 0.34673058991E-01 0.21636330542E-01 0.13106990462E-01 0.78425241579E-02 0.45980027963E-02
 0.26610375220E-02 0.15288423072E-02 0.86317570790E-03 0.48562495907E-03 0.26781381900E-03
 0.15269119328E-03 0.83292489313E-04 0.51772958171E-04 0.31964849652E-04 0.30191005835E-04
 0.32346328370E-04 0.51467978893E-04 0.82387149890E-04 0.15310995751E-03 0.26612847697E-03
 0.49010894538E-03 0.85574930076E-03 0.15217147638E-02 0.26690276541E-02 0.46098955849E-02
 0.78322193573E-02 0.13125187942E-01 0.21578811870E-01 0.34695681077E-01 0.54358209987E-01
 0.82661005382E-01 0.12146853969E+00 0.17175076031E+00 0.23260740044E+00 0.30042240674E+00
 0.36849134639E+00 0.42764034100E+00 0.46812699956E+00 0.48256443565E+00 0.46811552855E+00
 0.42765513143E+00 0.36859928155E+00 0.30051849021E+00 0.23261356729E+00 0.17165572033E+00
 0.58488174630E-01 0.39848825329E-01 0.26387839740E-01 0.16985824551E-01 0.10600953498E-01
 0.65633772938E-02 0.39431529439E-02 0.23464485983E-02 0.13738802407E-02 0.78772153497E-03
 0.45311749675E-03 0.25737478538E-03 0.14915065775E-03 0.82916557556E-04 0.51772951387E-04
 0.31154875797E-04 0.25931150863E-04 0.23311654277E-04 0.33071470843E-04 0.49284767280E-04
 0.87093020948E-04 0.14402687118E-03 0.26216188223E-03 0.44584732326E-03 0.79533440718E-03
 0.13668528072E-02 0.23307179836E-02 0.39459731838E-02 0.65563514383E-02 0.10647758088E-01
 0.16975080541E-01 0.26385973595E-01 0.39902088127E-01 0.58461104796E-01 0.82660995123E-01
 0.11233183113E+00 0.14614862638E+00 0.18135857704E+00 0.21392090581E+00 0.23919747073E+00
 0.25309449153E+00 0.25309060201E+00 0.23920965604E+00 0.21387103399E+00 0.18125886185E+00
 0.14609615929E+00 0.11233825023E+00 0.82728208350E-01 0.28211219103E-01 0.19372517715E-01
 0.12852677955E-01 0.83142034722E-02 0.53170474483E-02 0.32547821057E-02 0.19957759100E-02
 0.11924420868E-02 0.70494048247E-03 0.42033669076E-03 0.24279704462E-03 0.14213731861E-03
 0.81388406134E-04 0.52489877945E-04 0.31964837595E-04 0.25931146015E-04 0.21412691314E-04
 0.26153185496E-04 0.33106510038E-04 0.51317884793E-04 0.80770743457E-04 0.14693638027E-03
 0.24407687611E-03 0.43476814505E-03 0.71596968112E-03 0.11914670220E-02 0.19821778405E-02
 0.32647166654E-02 0.52862436221E-02 0.83194081806E-02 0.12842933106E-01 0.19334947097E-01
 0.28226274210E-01 0.39902083192E-01 0.54358196588E-01 0.71156117468E-01 0.89166718022E-01
 0.10666209304E+00 0.12147446322E+00 0.13146117700E+00 0.13496800790E+00 0.13145748097E+00
 0.12149100514E+00 0.10671215096E+00 0.89245112052E-01 0.71185064448E-01 0.54354742316E-01
 0.39848299651E-01 0.13718811534E-01 0.93821030562E-02 0.62920145966E-02 0.41132852570E-02
 0.25738805429E-02 0.16485450329E-02 0.10033250905E-02 0.61230656388E-03 0.36937621605E-03
 0.21378042546E-03 0.13166001438E-03 0.80545682699E-04 0.54972112985E-04 0.34896992253E-04
 0.30190986965E-04 0.23311638837E-04 0.26153175988E-04 0.26507680823E-04 0.37334661679E-04
 0.52643972041E-04 0.91482107313E-04 0.13328295741E-03 0.23386594558E-03 0.36749823660E-03
 0.63849795023E-03 0.10364983991E-02 0.16231911629E-02 0.25792409686E-02 0.41179052299E-02
 0.62986344412E-02 0.94134145086E-02 0.13712032476E-01 0.19334944723E-01 0.26385967129E-01
 0.34695668384E-01 0.43839699345E-01 0.53065416789E-01 0.61385002594E-01 0.67713743149E-01
 0.71131022583E-01 0.71139134097E-01 0.67697635524E-01 0.61363444170E-01 0.53026729049E-01
 0.43775560669E-01 0.34676743301E-01 0.26387468916E-01 0.19373543431E-01 0.66561406570E-02
 0.46261676491E-02 0.30923742871E-02 0.20208230199E-02 0.13460426729E-02 0.81638632011E-03
 0.51851378343E-03 0.31866850974E-03 0.19679737240E-03 0.13164267289E-03 0.83760460508E-04
 0.58371197760E-04 0.42466235160E-04 0.38012224773E-04 0.32346292308E-04 0.33071441573E-04
 0.33106487902E-04 0.37334647745E-04 0.46194577182E-04 0.63017427535E-04 0.74199979123E-04
 0.11865489919E-03 0.17661348344E-03 0.33279404210E-03 0.54404508126E-03 0.83567912440E-03
 0.12954203423E-02 0.20174609847E-02 0.31290289606E-02 0.46002273128E-02 0.66572541686E-02
 0.94134133567E-02 0.12842929958E-01 0.16975074352E-01 0.21578801482E-01 0.26386669908E-01
 0.30924482787E-01 0.34697229160E-01 0.37200383867E-01 0.38096099551E-01 0.37208298541E-01
 0.34715950574E-01 0.30942316872E-01 0.26414972670E-01 0.21636707909E-01 0.16982336207E-01
 0.12852738044E-01 0.93809070450E-02 0.32899538565E-02 0.22458918635E-02 0.15254652313E-02
 0.10182761316E-02 0.61707647402E-03 0.42973896346E-03 0.26771465286E-03 0.17698069265E-03
 0.12013882095E-03 0.79376562369E-04 0.65526795873E-04 0.56979875832E-04 0.54337920186E-04
 0.49596712211E-04 0.51467917191E-04 0.49284709468E-04 0.51317836041E-04 0.52643936087E-04
 0.63017403795E-04 0.56094979024E-04 0.75019200599E-04 0.85587736305E-04 0.17322761363E-03
 0.26285032725E-03 0.44518691686E-03 0.71297522837E-03 0.10021703466E-02 0.14792666856E-02
 0.22687754794E-02 0.32432066370E-02 0.46002267595E-02 0.62986329340E-02 0.83194051768E-02
 0.10647752985E-01 0.13125180147E-01 0.15569347867E-01 0.17717501372E-01 0.19336573261E-01
 0.20195600977E-01 0.20185248182E-01 0.19323247094E-01 0.17705008742E-01 0.15552745545E-01
 0.13105341378E-01 0.10599282293E-01 0.83191233667E-02 0.62908239416E-02 0.46286300196E-02
 0.15899012635E-02 0.11335559890E-02 0.76515810262E-03 0.50887267997E-03 0.38147813794E-03
 0.22986309627E-03 0.16514718788E-03 0.12328846925E-03 0.95948283548E-04 0.94873612301E-04
 0.82555901503E-04 0.83856728881E-04 0.80372159495E-04 0.87354463950E-04 0.82387039805E-04
 0.87092916073E-04 0.80770659618E-04 0.91482031777E-04 0.74199917335E-04 0.75019166456E-04
 0.57141878217E-04 0.10598834767E-03 0.12476996135E-03 0.24509391066E-03 0.42156481112E-03
 0.51638335708E-03 0.68284423440E-03 0.11171988398E-02 0.16796014118E-02 0.22687751990E-02
 0.31290282024E-02 0.41179037424E-02 0.52862410844E-02 0.65563475909E-02 0.78322138742E-02
 0.90360521017E-02 0.10007213180E-01 0.10650637938E-01 0.10874639989E-01 0.10666005068E-01
 0.10015405232E-01 0.90476695300E-02 0.78467273933E-02 0.65664604420E-02 0.53167526452E-02
 0.41100640217E-02 0.30918017921E-02 0.22440251095E-02 0.82320080633E-03 0.55748167150E-03
 0.39249146005E-03 0.28243660760E-03 0.16346773556E-03 0.15620031962E-03 0.12629270332E-03
 0.11728837450E-03 0.11969685790E-03 0.11671074373E-03 0.13149518747E-03 0.13992655289E-03
 0.14927285310E-03 0.14860738855E-03 0.15310975972E-03 0.14402669546E-03 0.14693623055E-03
 0.13328281705E-03 0.11865478166E-03 0.85587664137E-04 0.10598831184E-03 0.88560742988E-04
 0.15659360091E-03 0.27434494319E-03 0.28186114105E-03 0.36347090850E-03 0.55949632406E-03
 0.88075312465E-03 0.11171987118E-02 0.14792662947E-02 0.20174602491E-02 0.25792396979E-02
 0.32647146998E-02 0.39459703939E-02 0.46098918935E-02 0.51643280685E-02 0.55921760919E-02
 0.58115619590E-02 0.58116390325E-02 0.55746573490E-02 0.51643193484E-02 0.45901153820E-02
 0.39396156467E-02 0.32524472544E-02 0.25737501470E-02 0.20247153714E-02 0.15262774308E-02
 0.11346206742E-02 0.39499428628E-03 0.30918587445E-03 0.23455138232E-03 0.18209169522E-03
 0.20007921247E-03 0.15743659696E-03 0.16644544125E-03 0.18192972606E-03 0.19810284801E-03
 0.22987350211E-03 0.24203132648E-03 0.26055417719E-03 0.26687546117E-03 0.27744680424E-03
 0.26612813645E-03 0.26216158997E-03 0.24407662679E-03 0.23386571350E-03 0.17661329600E-03
 0.17322748707E-03 0.12476987145E-03 0.15659357018E-03 0.22596007068E-03 0.19027870371E-03
 0.24562474255E-03 0.30533551308E-03 0.41530411954E-03 0.55949626380E-03 0.68284405756E-03
 0.10021699971E-02 0.12954197704E-02 0.16231902198E-02 0.19821764741E-02 0.23307160684E-02
 0.26690252405E-02 0.29199136046E-02 0.30910830802E-02 0.31452209231E-02 0.30937162460E-02
 0.29321485964E-02 0.26696733718E-02 0.23513330420E-02 0.20004272181E-02 0.16490262321E-02
 0.13474222033E-02 0.10123697002E-02 0.76692390180E-03 0.55470278225E-03 0.26324641725E-03
 0.19967114739E-03 0.18240246485E-03 0.18465261692E-03 0.16551949273E-03 0.22546585639E-03
 0.26957084836E-03 0.31081800753E-03 0.36907560022E-03 0.40175463782E-03 0.45624024689E-03
 0.47974139101E-03 0.50506277327E-03 0.49342642951E-03 0.49010837276E-03 0.44584683917E-03
 0.43476774787E-03 0.36749787819E-03 0.33279377630E-03 0.26285012196E-03 0.24509379828E-03
 0.27434487890E-03 0.19027867802E-03 0.21554692921E-03 0.20498775757E-03 0.18229559100E-03
 0.30533547942E-03 0.36347084892E-03 0.51638318985E-03 0.71297496487E-03 0.83567866031E-03
 0.10364977291E-02 0.11914661025E-02 0.13668515668E-02 0.15217132288E-02 0.16355559626E-02
 0.16938739257E-02 0.16944781697E-02 0.16325381011E-02 0.15124161627E-02 0.13686801828E-02
 0.11861008704E-02 0.10012962595E-02 0.81423217721E-03 0.61845699833E-03 0.51122110928E-03
 0.39361801783E-03 0.31047623358E-03 0.16875664721E-03 0.20233493638E-03 0.23100497671E-03
 0.28140176976E-03 0.37921675541E-03 0.43370065089E-03 0.51695781087E-03 0.62133511691E-03
 0.70571781530E-03 0.80698957554E-03 0.86024221557E-03 0.91056673477E-03 0.91663152159E-03
 0.91230639825E-03 0.85574834281E-03 0.79533363828E-03 0.71596906265E-03 0.63849747076E-03
 0.54404470470E-03 0.44518667043E-03 0.42156467907E-03 0.28186105294E-03 0.24562473482E-03
 0.20498773938E-03 0.11480157264E-03 0.20498774029E-03 0.24562473482E-03 0.28186105283E-03
 0.42156467887E-03 0.44518667040E-03 0.54404470471E-03 0.63849747076E-03 0.71596906262E-03
 0.79533363828E-03 0.85574834282E-03 0.91230639827E-03 0.91663152159E-03 0.91056673476E-03
 0.86024221559E-03 0.80698957553E-03 0.70571781529E-03 0.62133511691E-03 0.51695781087E-03
 0.43370065090E-03 0.37921675541E-03 0.28140176975E-03 0.23100497670E-03 0.20233493641E-03
 0.26324641724E-03 0.31047623360E-03 0.39361801784E-03 0.51122110928E-03 0.61845699835E-03
 0.81423217721E-03 0.10012962595E-02 0.11861008703E-02 0.13686801828E-02 0.15124161627E-02
 0.16325381011E-02 0.16944781697E-02 0.16938739257E-02 0.16355559626E-02 0.15217132288E-02
 0.13668515668E-02 0.11914661026E-02 0.10364977291E-02 0.83567866032E-03 0.71297496488E-03
 0.51638318990E-03 0.36347084892E-03 0.30533547897E-03 0.18229559009E-03 0.20498775666E-03
 0.21554692921E-03 0.19027867802E-03 0.27434487902E-03 0.24509379823E-03 0.26285012196E-03
 0.33279377629E-03 0.36749787821E-03 0.43476774785E-03 0.44584683917E-03 0.49010837276E-03
 0.49342642952E-03 0.50506277327E-03 0.47974139100E-03 0.45624024691E-03 0.40175463782E-03
 0.36907560022E-03 0.31081800752E-03 0.26957084836E-03 0.22546585637E-03 0.16551949273E-03
 0.18465261691E-03 0.18240246486E-03 0.19967114746E-03 0.39499428628E-03 0.55470278219E-03
 0.76692390180E-03 0.10123697002E-02 0.13474222033E-02 0.16490262321E-02 0.20004272181E-02
 0.23513330420E-02 0.26696733718E-02 0.29321485964E-02 0.30937162460E-02 0.31452209232E-02
 0.30910830802E-02 0.29199136046E-02 0.26690252405E-02 0.23307160684E-02 0.19821764741E-02
 0.16231902197E-02 0.12954197704E-02 0.10021699971E-02 0.68284405756E-03 0.55949626380E-03
 0.41530411909E-03 0.30533551217E-03 0.24562474255E-03 0.19027870349E-03 0.22596007068E-03
 0.15659357010E-03 0.12476987145E-03 0.17322748708E-03 0.17661329600E-03 0.23386571353E-03
 0.24407662678E-03 0.26216158997E-03 0.26612813646E-03 0.27744680425E-03 0.26687546117E-03
 0.26055417718E-03 0.24203132649E-03 0.22987350211E-03 0.19810284801E-03 0.18192972604E-03
 0.16644544125E-03 0.15743659694E-03 0.20007921246E-03 0.18209169520E-03 0.23455138233E-03
 0.30918587451E-03 0.82320080633E-03 0.11346206742E-02 0.15262774308E-02 0.20247153714E-02
 0.25737501470E-02 0.32524472544E-02 0.39396156467E-02 0.45901153820E-02 0.51643193484E-02
 0.55746573490E-02 0.58116390325E-02 0.58115619590E-02 0.55921760919E-02 0.51643280685E-02
 0.46098918935E-02 0.39459703939E-02 0.32647146998E-02 0.25792396979E-02 0.20174602491E-02
 0.14792662948E-02 0.11171987118E-02 0.88075312431E-03 0.55949632360E-03 0.36347090895E-03
 0.28186114105E-03 0.27434494302E-03 0.15659360110E-03 0.88560743087E-04 0.10598831183E-03
 0.85587664139E-04 0.11865478167E-03 0.13328281708E-03 0.14693623055E-03 0.14402669546E-03
 0.15310975973E-03 0.14860738855E-03 0.14927285310E-03 0.13992655288E-03 0.13149518749E-03
 0.11671074374E-03 0.11969685791E-03 0.11728837450E-03 0.12629270332E-03 0.15620031963E-03
 0.16346773556E-03 0.28243660756E-03 0.39249146006E-03 0.55748167147E-03 0.15899012634E-02
 0.22440251095E-02 0.30918017921E-02 0.41100640217E-02 0.53167526452E-02 0.65664604420E-02
 0.78467273933E-02 0.90476695300E-02 0.10015405232E-01 0.10666005068E-01 0.10874639989E-01
 0.10650637938E-01 0.10007213180E-01 0.90360521017E-02 0.78322138742E-02 0.65563475909E-02
 0.52862410844E-02 0.41179037424E-02 0.31290282024E-02 0.22687751990E-02 0.16796014117E-02
 0.11171988398E-02 0.68284423435E-03 0.51638335731E-03 0.42156481118E-03 0.24509391051E-03
 0.12476996140E-03 0.10598834768E-03 0.57141878239E-04 0.75019166438E-04 0.74199917337E-04
 0.91482031831E-04 0.80770659616E-04 0.87092916073E-04 0.82387039824E-04 0.87354463942E-04
 0.80372159495E-04 0.83856728868E-04 0.82555901515E-04 0.94873612303E-04 0.95948283554E-04
 0.12328846925E-03 0.16514718788E-03 0.22986309628E-03 0.38147813794E-03 0.50887267997E-03
 0.76515810259E-03 0.11335559889E-02 0.32899538565E-02 0.46286300196E-02 0.62908239416E-02
 0.83191233667E-02 0.10599282293E-01 0.13105341378E-01 0.15552745545E-01 0.17705008742E-01
 0.19323247094E-01 0.20185248182E-01 0.20195600977E-01 0.19336573261E-01 0.17717501372E-01
 0.15569347867E-01 0.13125180147E-01 0.10647752985E-01 0.83194051768E-02 0.62986329340E-02
 0.46002267595E-02 0.32432066370E-02 0.22687754794E-02 0.14792666856E-02 0.10021703464E-02
 0.71297522842E-03 0.44518691688E-03 0.26285032699E-03 0.17322761377E-03 0.85587736396E-04
 0.75019200609E-04 0.56094979028E-04 0.63017403794E-04 0.52643936133E-04 0.51317836028E-04
 0.49284709466E-04 0.51467917208E-04 0.49596712201E-04 0.54337920186E-04 0.56979875838E-04
 0.65526795863E-04 0.79376562374E-04 0.12013882095E-03 0.17698069264E-03 0.26771465286E-03
 0.42973896347E-03 0.61707647401E-03 0.10182761316E-02 0.15254652313E-02 0.22458918635E-02
 0.66561406570E-02 0.93809070450E-02 0.12852738044E-01 0.16982336207E-01 0.21636707909E-01
 0.26414972670E-01 0.30942316872E-01 0.34715950574E-01 0.37208298541E-01 0.38096099551E-01
 0.37200383867E-01 0.34697229160E-01 0.30924482787E-01 0.26386669908E-01 0.21578801482E-01
 0.16975074352E-01 0.12842929958E-01 0.94134133566E-02 0.66572541686E-02 0.46002273129E-02
 0.31290289605E-02 0.20174609848E-02 0.12954203423E-02 0.83567912468E-03 0.54404508128E-03
 0.33279404204E-03 0.17661348350E-03 0.11865489920E-03 0.74199979141E-04 0.63017427523E-04
 0.46194577183E-04 0.37334647761E-04 0.33106487906E-04 0.33071441570E-04 0.32346292325E-04
 0.38012224748E-04 0.42466235160E-04 0.58371197779E-04 0.83760460500E-04 0.13164267290E-03
 0.19679737240E-03 0.31866850973E-03 0.51851378344E-03 0.81638632013E-03 0.13460426728E-02
 0.20208230199E-02 0.30923742871E-02 0.46261676491E-02 0.13718811534E-01 0.19373543431E-01
 0.26387468916E-01 0.34676743301E-01 0.43775560669E-01 0.53026729049E-01 0.61363444170E-01
 0.67697635524E-01 0.71139134097E-01 0.71131022583E-01 0.67713743149E-01 0.61385002594E-01
 0.53065416789E-01 0.43839699345E-01 0.34695668384E-01 0.26385967129E-01 0.19334944723E-01
 0.13712032475E-01 0.94134145086E-02 0.62986344413E-02 0.41179052299E-02 0.25792409686E-02
 0.16231911628E-02 0.10364983993E-02 0.63849795034E-03 0.36749823659E-03 0.23386594561E-03
 0.13328295745E-03 0.91482107313E-04 0.52643972020E-04 0.37334661683E-04 0.26507680826E-04
 0.26153175995E-04 0.23311638835E-04 0.30190986982E-04 0.34896992227E-04 0.54972112985E-04
 0.80545682725E-04 0.13166001438E-03 0.21378042547E-03 0.36937621604E-03 0.61230656390E-03
 0.10033250905E-02 0.16485450329E-02 0.25738805429E-02 0.41132852570E-02 0.62920145966E-02
 0.93821030559E-02 0.28211219103E-01 0.39848299651E-01 0.54354742316E-01 0.71185064448E-01
 0.89245112052E-01 0.10671215096E+00 0.12149100514E+00 0.13145748097E+00 0.13496800790E+00
 0.13146117700E+00 0.12147446322E+00 0.10666209304E+00 0.89166718022E-01 0.71156117468E-01
 0.54358196588E-01 0.39902083192E-01 0.28226274210E-01 0.19334947097E-01 0.12842933106E-01
 0.83194081807E-02 0.52862436221E-02 0.32647166654E-02 0.19821778405E-02 0.11914670219E-02
 0.71596968107E-03 0.43476814493E-03 0.24407687609E-03 0.14693638036E-03 0.80770743474E-04
 0.51317884768E-04 0.33106510042E-04 0.26153185499E-04 0.21412691322E-04 0.25931146016E-04
 0.31964837610E-04 0.52489877932E-04 0.81388406134E-04 0.14213731864E-03 0.24279704464E-03
 0.42033669076E-03 0.70494048246E-03 0.11924420869E-02 0.19957759100E-02 0.32547821058E-02
 0.53170474483E-02 0.83142034722E-02 0.12852677955E-01 0.19372517715E-01 0.58488174630E-01
 0.82728208350E-01 0.11233825023E+00 0.14609615929E+00 0.18125886185E+00 0.21387103399E+00
 0.23920965604E+00 0.25309060201E+00 0.25309449153E+00 0.23919747073E+00 0.21392090581E+00
 0.18135857704E+00 0.14614862638E+00 0.11233183113E+00 0.82660995123E-01 0.58461104796E-01
 0.39902088127E-01 0.26385973595E-01 0.16975080541E-01 0.10647758088E-01 0.65563514383E-02
 0.39459731839E-02 0.23307179835E-02 0.13668528072E-02 0.79533440719E-03 0.44584732331E-03
 0.26216188219E-03 0.14402687116E-03 0.87093020977E-04 0.49284767235E-04 0.33071470850E-04
 0.23311654289E-04 0.25931150873E-04 0.31154875802E-04 0.51772951402E-04 0.82916557553E-04
 0.14915065775E-03 0.25737478543E-03 0.45311749677E-03 0.78772153497E-03 0.13738802407E-02
 0.23464485983E-02 0.39431529439E-02 0.65633772938E-02 0.10600953498E-01 0.16985824551E-01