unknown system                          
   1.00000000000000     
     3.459762   -0.000000    1.997495
     1.153254    3.261896    1.997495
    -0.000000   -0.000000    3.994989
   Na   Cl
     1     1
Direct
  0.000000  0.000000  0.000000
  0.500000  0.500000  0.500000
 
   48   48   48
 0.24259148188E+03 0.11483363782E+04 0.11275364443E+04 0.72065229147E+03 0.40284785718E+03
 0.21560302349E+03 0.11443747646E+03 0.61165833886E+02 0.33257952416E+02 0.18566714995E+02
 0.10805495130E+02 0.66332758845E+01 0.44487979909E+01 0.32126379073E+01 0.25708634790E+01
 0.22040707850E+01 0.20226213375E+01 0.19161082662E+01 0.18761008768E+01 0.18493432409E+01
 0.18504591662E+01 0.18450581285E+01 0.18546494364E+01 0.18512590743E+01 0.18585438557E+01
 0.18512590743E+01 0.18546494364E+01 0.18450581285E+01 0.18504591662E+01 0.18493432409E+01
 0.18761008768E+01 0.19161082662E+01 0.20226213375E+01 0.22040707850E+01 0.25708634790E+01
 0.32126379073E+01 0.44487979909E+01 0.66332758845E+01 0.10805495130E+02 0.18566714995E+02
 0.33257952416E+02 0.61165833886E+02 0.11443747646E+03 0.21560302349E+03 0.40284785718E+03
 0.72065229147E+03 0.11275364443E+04 0.11483363782E+04 0.11483366186E+04 0.12107998030E+04
 0.86428349382E+03 0.51097336736E+03 0.28054505322E+03 0.15044215692E+03 0.80582714823E+02
 0.43629705851E+02 0.24127814485E+02 0.13770837822E+02 0.82722009973E+01 0.53134248024E+01
 0.36946700326E+01 0.28324342166E+01 0.23490650116E+01 0.21001586856E+01 0.19596898861E+01
 0.18967626799E+01 0.18632352358E+01 0.18552507610E+01 0.18526203255E+01 0.18569301159E+01
 0.18599506476E+01 0.18622452148E+01 0.18627457832E+01 0.18594543609E+01 0.18574066000E+01
 0.18521545679E+01 0.18557411031E+01 0.18627495873E+01 0.18972311438E+01 0.19592247576E+01
 0.21006023494E+01 0.23486460980E+01 0.28328178515E+01 0.36943384962E+01 0.53136759906E+01
 0.82721026208E+01 0.13770329282E+02 0.24127817006E+02 0.43628052962E+02 0.80585513543E+02
 0.15043732525E+03 0.28054794216E+03 0.51096728544E+03 0.86427597580E+03 0.12108080645E+04
 0.11483393163E+04 0.11275365657E+04 0.86428351040E+03 0.55523165164E+03 0.32269658271E+03
 0.17924595234E+03 0.98050541763E+02 0.53688778060E+02 0.29785288303E+02 0.16921528258E+02
 0.10021318962E+02 0.62370904520E+01 0.42547462818E+01 0.31246683073E+01 0.25278445744E+01
 0.21912469629E+01 0.20220047846E+01 0.19267806705E+01 0.18909543764E+01 0.18699852993E+01
 0.18729577184E+01 0.18712125883E+01 0.18813501936E+01 0.18801081166E+01 0.18866730592E+01
 0.18801187608E+01 0.18813376692E+01 0.18712510620E+01 0.18728680335E+01 0.18700648062E+01
 0.18908656968E+01 0.19269049734E+01 0.20218741149E+01 0.21914019355E+01 0.25276707099E+01
 0.31248546141E+01 0.42545107183E+01 0.62378661925E+01 0.10020592716E+02 0.16919628160E+02
 0.29784074801E+02 0.53687118682E+02 0.98051660284E+02 0.17924243689E+03 0.32269850770E+03
 0.55523039553E+03 0.86428281027E+03 0.11275383513E+04 0.12108082266E+04 0.72065229880E+03
 0.51097335157E+03 0.32269657168E+03 0.19041783438E+03 0.10860022559E+03 0.61169824728E+02
 0.34522230873E+02 0.19791163365E+02 0.11684835146E+02 0.72348027406E+01 0.48198918742E+01
 0.34448289798E+01 0.27164171004E+01 0.23008121490E+01 0.20897707173E+01 0.19713185123E+01
 0.19227620881E+01 0.18986381750E+01 0.18982861105E+01 0.19005935225E+01 0.19095862304E+01
 0.19146527062E+01 0.19191384376E+01 0.19187144545E+01 0.19150664404E+01 0.19091674004E+01
 0.19010281523E+01 0.18978812951E+01 0.18990643679E+01 0.19223209569E+01 0.19717364576E+01
 0.20893456594E+01 0.23012193123E+01 0.27160415807E+01 0.34451697330E+01 0.48193531231E+01
 0.72349324516E+01 0.11685373815E+02 0.19793026064E+02 0.34523564027E+02 0.61168760373E+02
 0.10860044579E+03 0.19041379139E+03 0.32269317749E+03 0.51096844767E+03 0.72065787014E+03
 0.86428283792E+03 0.86427602003E+03 0.40284782048E+03 0.28054502214E+03 0.17924593400E+03
 0.10860021870E+03 0.63958524421E+02 0.37260961322E+02 0.21825237872E+02 0.13024352204E+02
 0.80941751513E+01 0.53253582440E+01 0.37591488833E+01 0.29027353665E+01 0.24155932451E+01
 0.21626942283E+01 0.20209032457E+01 0.19616050758E+01 0.19319817246E+01 0.19327927264E+01
 0.19355291344E+01 0.19498169063E+01 0.19561133129E+01 0.19665862347E+01 0.19655317978E+01
 0.19666006432E+01 0.19560986552E+01 0.19498105630E+01 0.19355270089E+01 0.19327725554E+01
 0.19319837398E+01 0.19616250592E+01 0.20208951365E+01 0.21627312704E+01 0.24155327057E+01
 0.29028069801E+01 0.37593843572E+01 0.53254305325E+01 0.80925758827E+01 0.13023929221E+02
 0.21823452472E+02 0.37263880507E+02 0.63960159854E+02 0.10860227372E+03 0.17925471464E+03
 0.28054415411E+03 0.40284695362E+03 0.51096843385E+03 0.55523037561E+03 0.51096725584E+03
 0.21560297956E+03 0.15044212517E+03 0.98050523050E+02 0.61169816022E+02 0.37260958624E+02
 0.22559160646E+02 0.13775046834E+02 0.86748681198E+01 0.57095443693E+01 0.40272517034E+01
 0.30679822662E+01 0.25250070174E+01 0.22326089517E+01 0.20730864865E+01 0.20010582195E+01
 0.19702138108E+01 0.19693779852E+01 0.19776204194E+01 0.19939087738E+01 0.20077137966E+01
 0.20200426772E+01 0.20258517464E+01 0.20260314632E+01 0.20198616589E+01 0.20079168574E+01
 0.19937261985E+01 0.19777913958E+01 0.19692391190E+01 0.19703461417E+01 0.20009420572E+01
 0.20731371609E+01 0.22326125519E+01 0.25249333662E+01 0.30678484781E+01 0.40270454932E+01
 0.57108057825E+01 0.86741844577E+01 0.13778557869E+02 0.22557728396E+02 0.37263552405E+02
 0.61168734530E+02 0.98044085705E+02 0.15044094016E+03 0.21560043598E+03 0.28054413547E+03
 0.32269314216E+03 0.32269846134E+03 0.28054789243E+03 0.11443743924E+03 0.80582689219E+02
 0.53688763042E+02 0.34522223517E+02 0.21825234973E+02 0.13775046044E+02 0.88855195019E+01
 0.59189894577E+01 0.42100839164E+01 0.31907600919E+01 0.26165804215E+01 0.22923270275E+01
 0.21225154057E+01 0.20378044391E+01 0.20090083991E+01 0.20060140624E+01 0.20219209809E+01
 0.20407581537E+01 0.20636019271E+01 0.20796063682E+01 0.20929095284E+01 0.20952937653E+01
 0.20928573486E+01 0.20796783239E+01 0.20634677159E+01 0.20409329528E+01 0.20217037848E+01
 0.20062744296E+01 0.20086582693E+01 0.20382540351E+01 0.21219718309E+01 0.22930030676E+01
 0.26160327979E+01 0.31918292467E+01 0.42078768815E+01 0.59201815517E+01 0.88810421805E+01
 0.13778582635E+02 0.21821725238E+02 0.34523797736E+02 0.53695415548E+02 0.80579700146E+02
 0.11443553567E+03 0.15044092562E+03 0.17925468406E+03 0.19041374812E+03 0.17924238796E+03
 0.15043727896E+03 0.61165807220E+02 0.43629688266E+02 0.29785278234E+02 0.19791158348E+02
 0.13024350053E+02 0.86748673011E+01 0.59189892284E+01 0.42702445942E+01 0.32594666038E+01
 0.26744030209E+01 0.23401595182E+01 0.21593706863E+01 0.20723231011E+01 0.20409964568E+01
 0.20429025515E+01 0.20618960927E+01 0.20894761036E+01 0.21178419260E+01 0.21433355038E+01
 0.21618384827E+01 0.21717716796E+01 0.21717975971E+01 0.21618419185E+01 0.21433566610E+01
 0.21178122161E+01 0.20895358694E+01 0.20617796291E+01 0.20430988427E+01 0.20407385250E+01
 0.20726925664E+01 0.21588462268E+01 0.23405941199E+01 0.26733395670E+01 0.32617529698E+01
 0.42686055305E+01 0.59231808907E+01 0.86714435126E+01 0.13027381040E+02 0.19793001540E+02
 0.29776752505E+02 0.43633721558E+02 0.61166144488E+02 0.80579690625E+02 0.98044064300E+02
 0.10860224122E+03 0.10860040641E+03 0.98051620168E+02 0.80585478420E+02 0.33257935821E+02
 0.24127803955E+02 0.16921522319E+02 0.11684832131E+02 0.80941736629E+01 0.57095437177E+01
 0.42100836416E+01 0.32594665270E+01 0.26969642656E+01 0.23633205984E+01 0.21850618534E+01
 0.20956744898E+01 0.20683179456E+01 0.20719672737E+01 0.20988787391E+01 0.21321429604E+01
 0.21706675557E+01 0.22035473808E+01 0.22319733465E+01 0.22483687832E+01 0.22553927810E+01
 0.22484432477E+01 0.22317755450E+01 0.22038449567E+01 0.21702500933E+01 0.21326855398E+01
 0.20982075648E+01 0.20727811085E+01 0.20672735693E+01 0.20969389131E+01 0.21838005283E+01
 0.23653369201E+01 0.26937483805E+01 0.32621756744E+01 0.42048973670E+01 0.57128450963E+01
 0.80913543004E+01 0.11681930731E+02 0.16930296656E+02 0.24120313945E+02 0.33256265392E+02
 0.43633716066E+02 0.53695402418E+02 0.61168713319E+02 0.63960132413E+02 0.61168730448E+02
 0.53687090523E+02 0.43628029878E+02 0.18566705745E+02 0.13770832088E+02 0.10021315669E+02
 0.72348008442E+01 0.53253572881E+01 0.40272512004E+01 0.31907598833E+01 0.26744029444E+01
 0.23633205854E+01 0.21934747578E+01 0.21093480358E+01 0.20847235089E+01 0.20939668126E+01
 0.21267397498E+01 0.21683770574E+01 0.22156833108E+01 0.22585601316E+01 0.22967834921E+01
 0.23223706685E+01 0.23375784887E+01 0.23362850943E+01 0.23236812493E+01 0.22954700059E+01
 0.22599018342E+01 0.22143053203E+01 0.21698203400E+01 0.21251961863E+01 0.20956581075E+01
 0.20829410852E+01 0.21110573972E+01 0.21910914301E+01 0.23666489742E+01 0.26717852808E+01
 0.31953711824E+01 0.40251605676E+01 0.53251998003E+01 0.72406369527E+01 0.10006765053E+02
 0.13781325610E+02 0.18568291068E+02 0.24120311099E+02 0.29776745319E+02 0.34523785449E+02
 0.37263535543E+02 0.37263860952E+02 0.34523544398E+02 0.29784057559E+02 0.24127803624E+02
 0.10805490306E+02 0.82721978189E+01 0.62370885567E+01 0.48198907204E+01 0.37591482297E+01
 0.30679819522E+01 0.26165802804E+01 0.23401594742E+01 0.21850618514E+01 0.21093480435E+01
 0.20898437463E+01 0.21058088779E+01 0.21441447433E+01 0.21946243477E+01 0.22500643356E+01
 0.23042779822E+01 0.23519989304E+01 0.23894519808E+01 0.24129995748E+01 0.24213052372E+01
 0.24129952041E+01 0.23894784821E+01 0.23519378260E+01 0.23043713264E+01 0.22499180986E+01
 0.21948098394E+01 0.21439088177E+01 0.21060488570E+01 0.20897468312E+01 0.21099520600E+01
 0.21838591882E+01 0.23403072969E+01 0.26151688434E+01 0.30661265897E+01 0.37644601183E+01
 0.48087028007E+01 0.62546857604E+01 0.82639908582E+01 0.10795798834E+02 0.13781324236E+02
 0.16930293098E+02 0.19792995144E+02 0.21821715983E+02 0.22557717001E+02 0.21823440305E+02
 0.19793014635E+02 0.16919618651E+02 0.13770322186E+02 0.66332731003E+01 0.53134230217E+01
 0.42547450814E+01 0.34448282914E+01 0.29027350047E+01 0.25250068390E+01 0.22923269700E+01
 0.21593706884E+01 0.20956745196E+01 0.20847235435E+01 0.21058089000E+01 0.21504803648E+01
 0.22077726533E+01 0.22723871265E+01 0.23361341670E+01 0.23952459042E+01 0.24436010762E+01
 0.24785699623E+01 0.24964194650E+01 0.24965977748E+01 0.24783655431E+01 0.24438004544E+01
 0.23950483495E+01 0.23363448461E+01 0.22721850742E+01 0.22080185675E+01 0.21502382655E+01
 0.21058585843E+01 0.20842464958E+01 0.20966006730E+01 0.21595759691E+01 0.22931521315E+01
 0.25273322402E+01 0.28974683853E+01 0.34537433709E+01 0.42441921893E+01 0.53103282321E+01
 0.66523325127E+01 0.82639901884E+01 0.10006763322E+02 0.11681927566E+02 0.13027376291E+02
 0.13778576509E+02 0.13778550963E+02 0.13023922333E+02 0.11685367655E+02 0.10020587695E+02
 0.82720987624E+01 0.44487963795E+01 0.36946689444E+01 0.31246676608E+01 0.27164167172E+01
 0.24155930480E+01 0.22326088879E+01 0.21225154115E+01 0.20723231494E+01 0.20683180100E+01
 0.20939668768E+01 0.21441447958E+01 0.22077726835E+01 0.22800049869E+01 0.23527412478E+01
 0.24224404991E+01 0.24820784146E+01 0.25288894237E+01 0.25578853715E+01 0.25682486728E+01
 0.25579111452E+01 0.25288740911E+01 0.24821308428E+01 0.24223418397E+01 0.23528637858E+01
 0.22797837781E+01 0.22079565732E+01 0.21441690254E+01 0.20944560438E+01 0.20674133169E+01
 0.20721500293E+01 0.21215982355E+01 0.22308415805E+01 0.24195291060E+01 0.27107486261E+01
 0.31300708330E+01 0.37014115265E+01 0.44342618525E+01 0.53103278731E+01 0.62546848683E+01
 0.72406352878E+01 0.80913518185E+01 0.86714402430E+01 0.88810383350E+01 0.86741803567E+01
 0.80925718948E+01 0.72349288741E+01 0.62378634120E+01 0.53136738592E+01 0.32126370340E+01
 0.28324336470E+01 0.25278442169E+01 0.23008119804E+01 0.21626941829E+01 0.20730865104E+01
 0.20378045145E+01 0.20409965560E+01 0.20719673822E+01 0.21267398544E+01 0.21946244368E+01
 0.22723871922E+01 0.23527412834E+01 0.24317069006E+01 0.25020845515E+01 0.25605515239E+01
 0.26014956381E+01 0.26232291525E+01 0.26229371327E+01 0.26017804285E+01 0.25602209188E+01
 0.25024099488E+01 0.24313795744E+01 0.23531091923E+01 0.22720985592E+01 0.21946860770E+01
 0.21260063846E+01 0.20729039671E+01 0.20411634996E+01 0.20388340985E+01 0.20744477817E+01
 0.21594766031E+01 0.23049067282E+01 0.25239032691E+01 0.28271199636E+01 0.32211393200E+01
 0.37014113285E+01 0.42441916842E+01 0.48087018881E+01 0.53251984380E+01 0.57128432931E+01
 0.59231787130E+01 0.59201791482E+01 0.57108033464E+01 0.53254282324E+01 0.48193510657E+01
 0.42545090016E+01 0.36943372054E+01 0.25708630028E+01 0.23490647253E+01 0.21912468376E+01
 0.20897706839E+01 0.20209032835E+01 0.20010583159E+01 0.20090085246E+01 0.20429026955E+01
 0.20988788874E+01 0.21683771999E+01 0.22500644641E+01 0.23361342722E+01 0.24224405736E+01
 0.25020845902E+01 0.25713615234E+01 0.26240972081E+01 0.26578458620E+01 0.26690030001E+01
 0.26578353578E+01 0.26241324209E+01 0.25713539802E+01 0.25021820672E+01 0.24223887140E+01
 0.23363138048E+01 0.22502576832E+01 0.21690044657E+01 0.20982276695E+01 0.20424603621E+01
 0.20080590328E+01 0.19998412853E+01 0.20237909819E+01 0.20865239282E+01 0.21947211703E+01
 0.23530559044E+01 0.25648774159E+01 0.28271198565E+01 0.31300705591E+01 0.34537428699E+01
 0.37644593431E+01 0.40251594926E+01 0.42048960169E+01 0.42686039827E+01 0.42078752469E+01
 0.40270438955E+01 0.37593829143E+01 0.34451685429E+01 0.31248537020E+01 0.28328171775E+01
 0.22040705935E+01 0.21001586032E+01 0.20220047792E+01 0.19713185884E+01 0.19616052065E+01
 0.19702139697E+01 0.20060142456E+01 0.20618962857E+01 0.21321431548E+01 0.22156834974E+01
 0.23042781513E+01 0.23952460489E+01 0.24820785286E+01 0.25605516019E+01 0.26240972472E+01
 0.26696811086E+01 0.26928924037E+01 0.26931498290E+01 0.26694167470E+01 0.26243980676E+01
 0.25602252174E+01 0.24823520332E+01 0.23948615581E+01 0.23042340615E+01 0.22151127092E+01
 0.21330920069E+01 0.20621058977E+01 0.20069880150E+01 0.19711290159E+01 0.19593177605E+01
 0.19737285168E+01 0.20189032994E+01 0.20969653933E+01 0.22089264769E+01 0.23530558463E+01
 0.25239031204E+01 0.27107483524E+01 0.28974679562E+01 0.30661259891E+01 0.31953704232E+01
 0.32621747912E+01 0.32617520166E+01 0.31918282899E+01 0.30678475830E+01 0.29028061953E+01
 0.27160409230E+01 0.25276701979E+01 0.23486457515E+01 0.20226213001E+01 0.19596899272E+01
 0.19267807825E+01 0.19227622355E+01 0.19319819024E+01 0.19693781940E+01 0.20219212041E+01
 0.20894763360E+01 0.21706677879E+01 0.22585603553E+01 0.23519991383E+01 0.24436012594E+01
 0.25288895751E+01 0.26014957529E+01 0.26578459377E+01 0.26928924401E+01 0.27051890884E+01
 0.26929163963E+01 0.26578274500E+01 0.26014722002E+01 0.25287039064E+01 0.24434275968E+01
 0.23519349834E+01 0.22588159374E+01 0.21698324545E+01 0.20894258952E+01 0.20214755016E+01
 0.19683075073E+01 0.19339238145E+01 0.19207860127E+01 0.19297839828E+01 0.19620642593E+01
 0.20186427519E+01 0.20969653623E+01 0.21947210903E+01 0.23049065797E+01 0.24195288715E+01
 0.25273319094E+01 0.26151684165E+01 0.26717847664E+01 0.26937478046E+01 0.26733389675E+01
 0.26160322173E+01 0.25249328432E+01 0.24155322712E+01 0.23012189954E+01 0.21914017344E+01
 0.21006022378E+01 0.19161083587E+01 0.18967628180E+01 0.18909545459E+01 0.18986383876E+01
 0.19327929698E+01 0.19776206767E+01 0.20407584250E+01 0.21178422015E+01 0.22035476537E+01
 0.22967837545E+01 0.23894522234E+01 0.24785701788E+01 0.25578855555E+01 0.26232292993E+01
 0.26690031072E+01 0.26931498968E+01 0.26929164277E+01 0.26692651726E+01 0.26228598144E+01
 0.25580544724E+01 0.24782043552E+01 0.23894222487E+01 0.22959133009E+01 0.22038814927E+01
 0.21177480332E+01 0.20417611181E+01 0.19784699271E+01 0.19308147459E+01 0.19000963077E+01
 0.18885956557E+01 0.18947765775E+01 0.19198197708E+01 0.19620642433E+01 0.20189032575E+01
 0.20865238496E+01 0.21594764782E+01 0.22308414026E+01 0.22931518984E+01 0.23403070139E+01
 0.23666486590E+01 0.23653365934E+01 0.23405938047E+01 0.22930027857E+01 0.22326123211E+01
 0.21627311022E+01 0.20893455476E+01 0.20218740644E+01 0.19592247811E+01 0.18761010402E+01
 0.18632354380E+01 0.18699855399E+01 0.18982863669E+01 0.19355294060E+01 0.19939090653E+01
 0.20636022270E+01 0.21433358079E+01 0.22319736470E+01 0.23223709575E+01 0.24129998454E+01
 0.24964197082E+01 0.25682488821E+01 0.26229373040E+01 0.26578354891E+01 0.26694168390E+01
 0.26578275056E+01 0.26228598390E+01 0.25681045582E+01 0.24963797316E+01 0.24132533912E+01
 0.23227896535E+01 0.22312483541E+01 0.21429635832E+01 0.20623692914E+01 0.19933470761E+01
 0.19381260232E+01 0.18968737049E+01 0.18722426977E+01 0.18646981967E+01 0.18723418528E+01
 0.18947765699E+01 0.19297839626E+01 0.19737284782E+01 0.20237909199E+01 0.20744476923E+01
 0.21215981179E+01 0.21595758268E+01 0.21838590282E+01 0.21910912600E+01 0.21838003611E+01
 0.21588460771E+01 0.21219717130E+01 0.20731370858E+01 0.20208951108E+01 0.19717364946E+01
 0.19269050675E+01 0.18972312758E+01 0.18493434748E+01 0.18552510169E+01 0.18729579892E+01
 0.19005938212E+01 0.19498172262E+01 0.20077141240E+01 0.20796067034E+01 0.21618388174E+01
 0.22483691108E+01 0.23375788016E+01 0.24213055266E+01 0.24965980350E+01 0.25579113708E+01
 0.26017806155E+01 0.26241325677E+01 0.26243981754E+01 0.26014722721E+01 0.25580545140E+01
 0.24963797491E+01 0.24213966087E+01 0.23368624389E+01 0.22489331036E+01 0.21616813787E+01
 0.20798548058E+01 0.20080739841E+01 0.19485065947E+01 0.19016433333E+01 0.18698001563E+01
 0.18541071324E+01 0.18533654945E+01 0.18646981935E+01 0.18885956469E+01 0.19207859958E+01
 0.19593177333E+01 0.19998412470E+01 0.20388340490E+01 0.20721499704E+01 0.20966006087E+01
 0.21099519967E+01 0.21110573458E+01 0.20969388822E+01 0.20726925636E+01 0.20382540658E+01
 0.20009421241E+01 0.19616251639E+01 0.19223210879E+01 0.18908658555E+01 0.18627497850E+01
 0.18504594375E+01 0.18526206194E+01 0.18712129065E+01 0.19095865556E+01 0.19561136448E+01
 0.20200430215E+01 0.20929098754E+01 0.21717720252E+01 0.22553931181E+01 0.23362854152E+01
 0.24129955026E+01 0.24783658108E+01 0.25288743228E+01 0.25602211114E+01 0.25713541332E+01
 0.25602253319E+01 0.25287039865E+01 0.24782044063E+01 0.24132534191E+01 0.23368624499E+01
 0.22550605028E+01 0.21715564962E+01 0.20915083417E+01 0.20195671750E+01 0.19580739769E+01
 0.19087830066E+01 0.18739557539E+01 0.18532788311E+01 0.18477110619E+01 0.18541071316E+01
 0.18722426948E+01 0.19000963026E+01 0.19339238066E+01 0.19711290056E+01 0.20080590214E+01
 0.20411634895E+01 0.20674133118E+01 0.20842464997E+01 0.20897468496E+01 0.20829411203E+01
 0.20672736261E+01 0.20407386069E+01 0.20086583797E+01 0.19703462822E+01 0.19319839092E+01
 0.18990645748E+01 0.18700650458E+01 0.18557413595E+01 0.18450584421E+01 0.18569304398E+01
 0.18813505234E+01 0.19146530543E+01 0.19665865970E+01 0.20258521099E+01 0.20952941295E+01
 0.21717979546E+01 0.22484435918E+01 0.23236815731E+01 0.23894787779E+01 0.24438007181E+01
 0.24821310702E+01 0.25024101376E+01 0.25021822171E+01 0.24823521463E+01 0.24434276776E+01
 0.23894223024E+01 0.23227896856E+01 0.22489331201E+01 0.21715565022E+01 0.20955810653E+01
 0.20258664616E+01 0.19646028572E+01 0.19151694205E+01 0.18794866454E+01 0.18564189266E+01
 0.18479737788E+01 0.18532788313E+01 0.18698001567E+01 0.18968737058E+01 0.19308147485E+01
 0.19683075125E+01 0.20069880252E+01 0.20424603797E+01 0.20729039953E+01 0.20944560871E+01
 0.21058586461E+01 0.21060489403E+01 0.20956582180E+01 0.20727812475E+01 0.20430990110E+01
 0.20062746258E+01 0.19692393405E+01 0.19327728014E+01 0.18978815531E+01 0.18728683033E+01
 0.18521548607E+01 0.18546497673E+01 0.18599509913E+01 0.18801084746E+01 0.19191387949E+01
 0.19655321530E+01 0.20260318222E+01 0.20928577032E+01 0.21618422645E+01 0.22317758761E+01
 0.22954703157E+01 0.23519381092E+01 0.23950485995E+01 0.24223420531E+01 0.24313797502E+01
 0.24223888529E+01 0.23948616626E+01 0.23519350585E+01 0.22959133513E+01 0.22312483855E+01
 0.21616813960E+01 0.20915083499E+01 0.20258664642E+01 0.19668993727E+01 0.19188377204E+01
 0.18836179614E+01 0.18600021066E+01 0.18507557725E+01 0.18564189271E+01 0.18739557557E+01
 0.19016433365E+01 0.19381260297E+01 0.19784699387E+01 0.20214755213E+01 0.20621059290E+01
 0.20982277160E+01 0.21260064495E+01 0.21441691124E+01 0.21502383784E+01 0.21439089581E+01
 0.21251963529E+01 0.20982077574E+01 0.20617798464E+01 0.20217040249E+01 0.19777916571E+01
 0.19355272864E+01 0.19010284532E+01 0.18712513825E+01 0.18574069258E+01 0.18512594267E+01
 0.18622455678E+01 0.18866734095E+01 0.19187148138E+01 0.19666010088E+01 0.20198620180E+01
 0.20796786752E+01 0.21433569980E+01 0.22038452734E+01 0.22599021251E+01 0.23043715858E+01
 0.23363450724E+01 0.23528639768E+01 0.23531093481E+01 0.23363139261E+01 0.23042341519E+01
 0.22588160016E+01 0.22038815358E+01 0.21429636099E+01 0.20798548209E+01 0.20195671826E+01
 0.19646028602E+01 0.19188377213E+01 0.18851248634E+01 0.18621804542E+01 0.18535784110E+01
 0.18600021071E+01 0.18794866470E+01 0.19087830100E+01 0.19485066015E+01 0.19933470891E+01
 0.20417611398E+01 0.20894259301E+01 0.21330920588E+01 0.21690045396E+01 0.21946861759E+01
 0.22079566999E+01 0.22080187242E+01 0.21948100265E+01 0.21698205589E+01 0.21326857877E+01
 0.20895361433E+01 0.20409332483E+01 0.19937265106E+01 0.19498108902E+01 0.19091677301E+01
 0.18813379999E+01 0.18594547037E+01 0.18585442065E+01 0.18627461377E+01 0.18801191200E+01
 0.19150667899E+01 0.19560989927E+01 0.20079171889E+01 0.20634680347E+01 0.21178125187E+01
 0.21702503752E+01 0.22143055767E+01 0.22499183266E+01 0.22721852694E+01 0.22797839397E+01
 0.22720986886E+01 0.22502577823E+01 0.22151127813E+01 0.21698325047E+01 0.21177480661E+01
 0.20623693114E+01 0.20080739955E+01 0.19580739824E+01 0.19151694230E+01 0.18836179623E+01
 0.18621804543E+01 0.18547089096E+01 0.18621804543E+01 0.18836179623E+01 0.19151694230E+01
 0.19580739824E+01 0.20080739955E+01 0.20623693114E+01 0.21177480661E+01 0.21698325047E+01
 0.22151127813E+01 0.22502577823E+01 0.22720986886E+01 0.22797839397E+01 0.22721852694E+01
 0.22499183266E+01 0.22143055767E+01 0.21702503752E+01 0.21178125187E+01 0.20634680347E+01
 0.20079171889E+01 0.19560989927E+01 0.19150667899E+01 0.18801191200E+01 0.18627461377E+01
 0.18512594267E+01 0.18594547037E+01 0.18813379999E+01 0.19091677301E+01 0.19498108902E+01
 0.19937265106E+01 0.20409332483E+01 0.20895361433E+01 0.21326857877E+01 0.21698205589E+01
 0.21948100265E+01 0.22080187242E+01 0.22079566999E+01 0.21946861759E+01 0.21690045396E+01
 0.21330920588E+01 0.20894259301E+01 0.20417611398E+01 0.19933470891E+01 0.19485066015E+01
 0.19087830100E+01 0.18794866470E+01 0.18600021071E+01 0.18535784110E+01 0.18621804542E+01
 0.18851248634E+01 0.19188377213E+01 0.19646028602E+01 0.20195671826E+01 0.20798548209E+01
 0.21429636099E+01 0.22038815358E+01 0.22588160016E+01 0.23042341519E+01 0.23363139261E+01
 0.23531093481E+01 0.23528639768E+01 0.23363450724E+01 0.23043715858E+01 0.22599021251E+01
 0.22038452734E+01 0.21433569980E+01 0.20796786752E+01 0.20198620180E+01 0.19666010088E+01
 0.19187148138E+01 0.18866734095E+01 0.18622455678E+01 0.18546497673E+01 0.18574069258E+01
 0.18712513825E+01 0.19010284532E+01 0.19355272864E+01 0.19777916571E+01 0.20217040249E+01
 0.20617798464E+01 0.20982077574E+01 0.21251963529E+01 0.21439089581E+01 0.21502383784E+01
 0.21441691124E+01 0.21260064495E+01 0.20982277160E+01 0.20621059290E+01 0.20214755213E+01
 0.19784699387E+01 0.19381260297E+01 0.19016433365E+01 0.18739557557E+01 0.18564189271E+01
 0.18507557725E+01 0.18600021066E+01 0.18836179614E+01 0.19188377204E+01 0.19668993727E+01
 0.20258664642E+01 0.20915083499E+01 0.21616813960E+01 0.22312483855E+01 0.22959133513E+01
 0.23519350585E+01 0.23948616626E+01 0.24223888529E+01 0.24313797502E+01 0.24223420531E+01
 0.23950485995E+01 0.23519381092E+01 0.22954703157E+01 0.22317758761E+01 0.21618422645E+01
 0.20928577032E+01 0.20260318222E+01 0.19655321530E+01 0.19191387949E+01 0.18801084746E+01
 0.18599509913E+01 0.18450584421E+01 0.18521548607E+01 0.18728683033E+01 0.18978815531E+01
 0.19327728014E+01 0.19692393405E+01 0.20062746258E+01 0.20430990110E+01 0.20727812475E+01
 0.20956582180E+01 0.21060489403E+01 0.21058586461E+01 0.20944560871E+01 0.20729039953E+01
 0.20424603797E+01 0.20069880252E+01 0.19683075125E+01 0.19308147485E+01 0.18968737058E+01
 0.18698001567E+01 0.18532788313E+01 0.18479737788E+01 0.18564189266E+01 0.18794866454E+01
 0.19151694205E+01 0.19646028572E+01 0.20258664616E+01 0.20955810653E+01 0.21715565022E+01
 0.22489331201E+01 0.23227896856E+01 0.23894223024E+01 0.24434276776E+01 0.24823521463E+01
 0.25021822171E+01 0.25024101376E+01 0.24821310702E+01 0.24438007181E+01 0.23894787779E+01
 0.23236815731E+01 0.22484435918E+01 0.21717979546E+01 0.20952941295E+01 0.20258521099E+01
 0.19665865970E+01 0.19146530543E+01 0.18813505234E+01 0.18569304398E+01 0.18504594375E+01
 0.18557413595E+01 0.18700650458E+01 0.18990645748E+01 0.19319839092E+01 0.19703462822E+01
 0.20086583797E+01 0.20407386069E+01 0.20672736261E+01 0.20829411203E+01 0.20897468496E+01
 0.20842464997E+01 0.20674133118E+01 0.20411634895E+01 0.20080590214E+01 0.19711290056E+01
 0.19339238066E+01 0.19000963026E+01 0.18722426948E+01 0.18541071316E+01 0.18477110619E+01
 0.18532788311E+01 0.18739557539E+01 0.19087830066E+01 0.19580739769E+01 0.20195671750E+01
 0.20915083417E+01 0.21715564962E+01 0.22550605028E+01 0.23368624499E+01 0.24132534191E+01
 0.24782044063E+01 0.25287039865E+01 0.25602253319E+01 0.25713541332E+01 0.25602211114E+01
 0.25288743228E+01 0.24783658108E+01 0.24129955026E+01 0.23362854152E+01 0.22553931181E+01
 0.21717720252E+01 0.20929098754E+01 0.20200430215E+01 0.19561136448E+01 0.19095865556E+01
 0.18712129065E+01 0.18526206194E+01 0.18493434748E+01 0.18627497850E+01 0.18908658555E+01
 0.19223210879E+01 0.19616251639E+01 0.20009421241E+01 0.20382540658E+01 0.20726925636E+01
 0.20969388822E+01 0.21110573458E+01 0.21099519967E+01 0.20966006087E+01 0.20721499704E+01
 0.20388340490E+01 0.19998412470E+01 0.19593177333E+01 0.19207859958E+01 0.18885956469E+01
 0.18646981935E+01 0.18533654945E+01 0.18541071324E+01 0.18698001563E+01 0.19016433333E+01
 0.19485065947E+01 0.20080739841E+01 0.20798548058E+01 0.21616813787E+01 0.22489331036E+01
 0.23368624389E+01 0.24213966087E+01 0.24963797491E+01 0.25580545140E+01 0.26014722721E+01
 0.26243981754E+01 0.26241325677E+01 0.26017806155E+01 0.25579113708E+01 0.24965980350E+01
 0.24213055266E+01 0.23375788016E+01 0.22483691108E+01 0.21618388174E+01 0.20796067034E+01
 0.20077141240E+01 0.19498172262E+01 0.19005938212E+01 0.18729579892E+01 0.18552510169E+01
 0.18761010402E+01 0.18972312758E+01 0.19269050675E+01 0.19717364946E+01 0.20208951108E+01
 0.20731370858E+01 0.21219717130E+01 0.21588460771E+01 0.21838003611E+01 0.21910912600E+01
 0.21838590282E+01 0.21595758268E+01 0.21215981179E+01 0.20744476923E+01 0.20237909199E+01
 0.19737284782E+01 0.19297839626E+01 0.18947765699E+01 0.18723418528E+01 0.18646981967E+01
 0.18722426977E+01 0.18968737049E+01 0.19381260232E+01 0.19933470761E+01 0.20623692914E+01
 0.21429635832E+01 0.22312483541E+01 0.23227896535E+01 0.24132533912E+01 0.24963797316E+01
 0.25681045582E+01 0.26228598390E+01 0.26578275056E+01 0.26694168390E+01 0.26578354891E+01
 0.26229373040E+01 0.25682488821E+01 0.24964197082E+01 0.24129998454E+01 0.23223709575E+01
 0.22319736470E+01 0.21433358079E+01 0.20636022270E+01 0.19939090653E+01 0.19355294060E+01
 0.18982863669E+01 0.18699855399E+01 0.18632354380E+01 0.19161083587E+01 0.19592247811E+01
 0.20218740644E+01 0.20893455476E+01 0.21627311022E+01 0.22326123211E+01 0.22930027857E+01
 0.23405938047E+01 0.23653365934E+01 0.23666486590E+01 0.23403070139E+01 0.22931518984E+01
 0.22308414026E+01 0.21594764782E+01 0.20865238496E+01 0.20189032575E+01 0.19620642433E+01
 0.19198197708E+01 0.18947765775E+01 0.18885956557E+01 0.19000963077E+01 0.19308147459E+01
 0.19784699271E+01 0.20417611181E+01 0.21177480332E+01 0.22038814927E+01 0.22959133009E+01
 0.23894222487E+01 0.24782043552E+01 0.25580544724E+01 0.26228598144E+01 0.26692651726E+01
 0.26929164277E+01 0.26931498968E+01 0.26690031072E+01 0.26232292993E+01 0.25578855555E+01
 0.24785701788E+01 0.23894522234E+01 0.22967837545E+01 0.22035476537E+01 0.21178422015E+01
 0.20407584250E+01 0.19776206767E+01 0.19327929698E+01 0.18986383876E+01 0.18909545459E+01
 0.18967628180E+01 0.20226213001E+01 0.21006022378E+01 0.21914017344E+01 0.23012189954E+01
 0.24155322712E+01 0.25249328432E+01 0.26160322173E+01 0.26733389675E+01 0.26937478046E+01
 0.26717847664E+01 0.26151684165E+01 0.25273319094E+01 0.24195288715E+01 0.23049065797E+01
 0.21947210903E+01 0.20969653623E+01 0.20186427519E+01 0.19620642593E+01 0.19297839828E+01
 0.19207860127E+01 0.19339238145E+01 0.19683075073E+01 0.20214755016E+01 0.20894258952E+01
 0.21698324545E+01 0.22588159374E+01 0.23519349834E+01 0.24434275968E+01 0.25287039064E+01
 0.26014722002E+01 0.26578274500E+01 0.26929163963E+01 0.27051890884E+01 0.26928924401E+01
 0.26578459377E+01 0.26014957529E+01 0.25288895751E+01 0.24436012594E+01 0.23519991383E+01
 0.22585603553E+01 0.21706677879E+01 0.20894763360E+01 0.20219212041E+01 0.19693781940E+01
 0.19319819024E+01 0.19227622355E+01 0.19267807825E+01 0.19596899272E+01 0.22040705935E+01
 0.23486457515E+01 0.25276701979E+01 0.27160409230E+01 0.29028061953E+01 0.30678475830E+01
 0.31918282899E+01 0.32617520166E+01 0.32621747912E+01 0.31953704232E+01 0.30661259891E+01
 0.28974679562E+01 0.27107483524E+01 0.25239031204E+01 0.23530558463E+01 0.22089264769E+01
 0.20969653933E+01 0.20189032994E+01 0.19737285168E+01 0.19593177605E+01 0.19711290159E+01
 0.20069880150E+01 0.20621058977E+01 0.21330920069E+01 0.22151127092E+01 0.23042340615E+01
 0.23948615581E+01 0.24823520332E+01 0.25602252174E+01 0.26243980676E+01 0.26694167470E+01
 0.26931498290E+01 0.26928924037E+01 0.26696811086E+01 0.26240972472E+01 0.25605516019E+01
 0.24820785286E+01 0.23952460489E+01 0.23042781513E+01 0.22156834974E+01 0.21321431548E+01
 0.20618962857E+01 0.20060142456E+01 0.19702139697E+01 0.19616052065E+01 0.19713185884E+01