unknown system                          
   1.00000000000000     
     3.459762   -0.000000    1.997495
     1.153254    3.261896    1.997495
    -0.000000   -0.000000    3.994989
   Na   Cl
     1     1
Direct
  0.000000  0.000000  0.000000
  0.500000  0.500000  0.500000
 
   48   48   48
 2.66683110997E+05  9.32879302160E+03  1.62941406553E+03  9.83464854810E+02  5.68512725810E+02
 3.04942449647E+02  1.58870095808E+02  8.23064885250E+01  4.29760399540E+01  2.28523170162E+01
 1.24823289141E+01  7.05707067110E+00  4.18352324086E+00  2.66849741571E+00  1.90905442066E+00
 1.55063393518E+00  1.39239593577E+00  1.33153009839E+00  1.31833762012E+00  1.32943703747E+00
 1.35212740567E+00  1.37826094726E+00  1.40139264381E+00  1.41714579108E+00  1.42263640200E+00
 1.41714579108E+00  1.40139264381E+00  1.37826094726E+00  1.35212740567E+00  1.32943703747E+00
 1.31833762012E+00  1.33153009839E+00  1.39239593577E+00  1.55063393518E+00  1.90905442066E+00
 2.66849741571E+00  4.18352324086E+00  7.05707067110E+00  1.24823289141E+01  2.28523170162E+01
 4.29760399540E+01  8.23064885250E+01  1.58870095808E+02  3.04942449647E+02  5.68512725810E+02
 9.83464854810E+02  1.62941406553E+03  9.32879302160E+03  9.32879090550E+03  2.06631187033E+03
 1.16369448119E+03  7.14412328990E+02  3.97695775710E+02  2.10951135677E+02  1.10080690926E+02
 5.74843839900E+01  3.03934873940E+01  1.64304363959E+01  9.15367926680E+00  5.30207194437E+00
 3.25981489812E+00  2.20280853158E+00  1.68939611677E+00  1.45454724712E+00  1.35682675099E+00
 1.32561730918E+00  1.32789511975E+00  1.34692003187E+00  1.37299050522E+00  1.39881503516E+00
 1.41907204628E+00  1.43008568283E+00  1.43008834663E+00  1.41907333667E+00  1.39881225634E+00
 1.37299157003E+00  1.34691816540E+00  1.32789758267E+00  1.32561611433E+00  1.35682777908E+00
 1.45454672638E+00  1.68939627210E+00  2.20280940316E+00  3.25981295850E+00  5.30207540260E+00
 9.15367342080E+00  1.64304522656E+01  3.03934808612E+01  5.74844250450E+01  1.10080671908E+02
 2.10951218402E+02  3.97695813520E+02  7.14412363080E+02  1.16369457530E+03  2.06631186095E+03
 9.32879261770E+03  1.62941406087E+03  1.16369448988E+03  7.72648361230E+02  4.57197425200E+02
 2.52573732697E+02  1.35218196711E+02  7.16842262720E+01  3.81673050404E+01  2.06421728463E+01
 1.14440486037E+01  6.53266219400E+00  3.94478913494E+00  2.56046035078E+00  1.86753369352E+00
 1.54155237081E+00  1.39961978329E+00  1.34767543713E+00  1.34034951518E+00  1.35571977368E+00
 1.38179032053E+00  1.41040416581E+00  1.43532118771E+00  1.45206773192E+00  1.45793735529E+00
 1.45206418555E+00  1.43532231434E+00  1.41040593180E+00  1.38179113309E+00  1.35571920194E+00
 1.34034832603E+00  1.34767550039E+00  1.39961941890E+00  1.54155260793E+00  1.86753281398E+00
 2.56046165641E+00  3.94478762418E+00  6.53265842290E+00  1.14440498203E+01  2.06422014549E+01
 3.81673174152E+01  7.16842737060E+01  1.35218200118E+02  2.52573805825E+02  4.57197454580E+02
 7.72648381330E+02  1.16369448281E+03  1.62941406057E+03  2.06631172239E+03  9.83464847340E+02
 7.14412302290E+02  4.57197410150E+02  2.68686402846E+02  1.50454617047E+02  8.23090005000E+01
 4.47493267340E+01  2.45024483984E+01  1.36588377551E+01  7.82359026900E+00  4.66133730205E+00
 2.95537315427E+00  2.07443991880E+00  1.64845270240E+00  1.45683827113E+00  1.38177394438E+00
 1.36434301892E+00  1.37630541562E+00  1.40282471006E+00  1.43463770519E+00  1.46466401374E+00
 1.48764390524E+00  1.49999880785E+00  1.50000136876E+00  1.48764287051E+00  1.46466636231E+00
 1.43463179915E+00  1.40282860310E+00  1.37630219591E+00  1.36434794179E+00  1.38177046228E+00
 1.45684196806E+00  1.64844996133E+00  2.07444249025E+00  2.95537172189E+00  4.66134084539E+00
 7.82359487070E+00  1.36588300626E+01  2.45024413798E+01  4.47493145790E+01  8.23090358800E+01
 1.50454657197E+02  2.68686497505E+02  4.57197493160E+02  7.14412358890E+02  9.83464785080E+02
 1.16369449729E+03  1.16369459849E+03  5.68512671710E+02  3.97695735140E+02  2.52573711631E+02
 1.50454610156E+02  8.62781163910E+01  4.85680832540E+01  2.72545560331E+01  1.54420467309E+01
 8.92643839170E+00  5.32282448356E+00  3.34524001008E+00  2.29086980098E+00  1.76627863325E+00
 1.52352107029E+00  1.42437585878E+00  1.39677667831E+00  1.40593817728E+00  1.43358811504E+00
 1.46937929231E+00  1.50516395328E+00  1.53520577535E+00  1.55483255304E+00  1.56176219318E+00
 1.55483460484E+00  1.53520351411E+00  1.50516533410E+00  1.46938067247E+00  1.43358798588E+00
 1.40593788502E+00  1.39677501219E+00  1.42437624656E+00  1.52351963645E+00  1.76628011308E+00
 2.29086745981E+00  3.34523893157E+00  5.32282112379E+00  8.92645677540E+00  1.54420522178E+01
 2.72545797078E+01  4.85680742990E+01  8.62780913190E+01  1.50454643019E+02  2.52573665552E+02
 3.97695793600E+02  5.68512784340E+02  7.14412335520E+02  7.72648344150E+02  7.14412313010E+02
 3.04942396509E+02  2.10951100936E+02  1.35218178487E+02  8.23089930400E+01  4.85680812210E+01
 2.82574239093E+01  1.64442646806E+01  9.68617968750E+00  5.83403993668E+00  3.67798654664E+00
 2.49065104184E+00  1.88200460897E+00  1.59277968619E+00  1.47082679752E+00  1.43403492901E+00
 1.44119599173E+00  1.47109053709E+00  1.51169479317E+00  1.55430498330E+00  1.59224001719E+00
 1.62032824991E+00  1.63521630675E+00  1.63521754298E+00  1.62032385285E+00  1.59224397904E+00
 1.55430282972E+00  1.51169527525E+00  1.47108820425E+00  1.44119907867E+00  1.43403328780E+00
 1.47083108371E+00  1.59277510235E+00  1.88201126700E+00  2.49064696210E+00  3.67799698187E+00
 5.83402224073E+00  9.68619579390E+00  1.64442326877E+01  2.82574445756E+01  4.85681036790E+01
 8.23090133820E+01  1.35218312963E+02  2.10951181296E+02  3.04942443048E+02  3.97695769260E+02
 4.57197445010E+02  4.57197391390E+02  3.97695748590E+02  1.58870058002E+02  1.10080667291E+02
 7.16842138440E+01  4.47493213170E+01  2.72545541727E+01  1.64442642544E+01  9.95734484880E+00
 6.11320816916E+00  3.90276106207E+00  2.64504515404E+00  1.98037460047E+00  1.65603939078E+00
 1.51574235707E+00  1.47177590132E+00  1.47831466809E+00  1.51159809272E+00  1.55816538519E+00
 1.60862962150E+00  1.65562161604E+00  1.69329305516E+00  1.71753901550E+00  1.72588066314E+00
 1.71754031382E+00  1.69329491153E+00  1.65562006040E+00  1.60862759338E+00  1.55817003787E+00
 1.51159455821E+00  1.47831887679E+00  1.47176821001E+00  1.51574970089E+00  1.65602935185E+00
 1.98038282376E+00  2.64502893907E+00  3.90278648011E+00  6.11319295333E+00  9.95738669180E+00
 1.64442432831E+01  2.72545555930E+01  4.47493572330E+01  7.16841450580E+01  1.10080714181E+02
 1.58870131301E+02  2.10951165381E+02  2.52573630439E+02  2.68686446955E+02  2.52573749635E+02
 2.10951167746E+02  8.23064656790E+01  5.74843702130E+01  3.81672979204E+01  2.45024452753E+01
 1.54420455926E+01  9.68617935030E+00  6.11320810309E+00  3.98228865727E+00  2.72936566935E+00
 2.04663868481E+00  1.70448423637E+00  1.55334180749E+00  1.50545170187E+00  1.51314849892E+00
 1.55106069739E+00  1.60471900540E+00  1.66412410459E+00  1.72132088591E+00  1.76983024042E+00
 1.80481043709E+00  1.82308732927E+00  1.82308132928E+00  1.80481538615E+00  1.76982239024E+00
 1.72132991486E+00  1.66411776441E+00  1.60472389165E+00  1.55105281376E+00  1.51315788977E+00
 1.50544312794E+00  1.55335441640E+00  1.70447371304E+00  2.04665844226E+00  2.72933759032E+00
 3.98231246047E+00  6.11317040815E+00  9.68620553890E+00  1.54420648860E+01  2.45023978634E+01
 3.81674161030E+01  5.74843742670E+01  8.23064358940E+01  1.10080705401E+02  1.35218292136E+02
 1.50454610505E+02  1.50454617781E+02  1.35218161070E+02  1.10080639495E+02  4.29760278600E+01
 3.03934804073E+01  2.06421693607E+01  1.36588362445E+01  8.92643782010E+00  5.83403975264E+00
 3.90276099457E+00  2.72936565111E+00  2.07002440207E+00  1.73082051329E+00  1.57836324945E+00
 1.53079195558E+00  1.54161675221E+00  1.58534052357E+00  1.64700899160E+00  1.71628443913E+00
 1.78471081754E+00  1.84523880207E+00  1.89232220779E+00  1.92209318556E+00  1.93226537918E+00
 1.92209274366E+00  1.89232351342E+00  1.84523850179E+00  1.78471159550E+00  1.71627924032E+00
 1.64701762984E+00  1.58533256965E+00  1.54162657848E+00  1.53077740752E+00  1.57837494497E+00
 1.73079891557E+00  2.07005296305E+00  2.72934146149E+00  3.90279788373E+00  5.83403235214E+00
 8.92640533860E+00  1.36589208349E+01  2.06420637609E+01  3.03935380905E+01  4.29761102860E+01
 5.74843699620E+01  7.16841341820E+01  8.23089951980E+01  8.62780675180E+01  8.23090102350E+01
 7.16842504030E+01  5.74844069610E+01  2.28523113972E+01  1.64304332934E+01  1.14440470972E+01
 7.82358960770E+00  5.32282421811E+00  3.67798642456E+00  2.64504510246E+00  2.04663866595E+00
 1.73082050814E+00  1.58714345417E+00  1.54439022898E+00  1.56027216859E+00  1.61064575158E+00
 1.68085447910E+00  1.76051664672E+00  1.84086136038E+00  1.91434651448E+00  1.97472677167E+00
 2.01746916855E+00  2.03954950997E+00  2.03956500702E+00  2.01745423675E+00  1.97474286492E+00
 1.91432793287E+00  1.84088062918E+00  1.76050022213E+00  1.68086994900E+00  1.61062627957E+00
 1.56029290593E+00  1.54437378774E+00  1.58717013394E+00  1.73079079891E+00  2.04666211955E+00
 2.64501670206E+00  3.67798206959E+00  5.32288674050E+00  7.82349273960E+00  1.14441921490E+01
 1.64303936868E+01  2.28522191932E+01  3.03935362051E+01  3.81674110398E+01  4.47493482060E+01
 4.85680910310E+01  4.85680596170E+01  4.47493001330E+01  3.81673052309E+01  3.03934719902E+01
 1.24823266051E+01  9.15367802100E+00  6.53266164990E+00  4.66133700235E+00  3.34523985496E+00
 2.49065096602E+00  1.98037456596E+00  1.70448422189E+00  1.57836324417E+00  1.54439022756E+00
 1.56677550061E+00  1.62407796856E+00  1.70274234257E+00  1.79266395553E+00  1.88505099895E+00
 1.97192080686E+00  2.04646008015E+00  2.10335447749E+00  2.13892759493E+00  2.15101643017E+00
 2.13892639042E+00  2.10335431279E+00  2.04645931469E+00  1.97192393010E+00  1.88504806640E+00
 1.79266261991E+00  1.70274589672E+00  1.62407769876E+00  1.56677297032E+00  1.54438413907E+00
 1.57836702507E+00  1.70448980604E+00  1.98036624746E+00  2.49069675788E+00  3.34513084139E+00
 4.66147595747E+00  6.53251153180E+00  9.15368422850E+00  1.24824851934E+01  1.64303929509E+01
 2.06420616695E+01  2.45023938820E+01  2.72545496390E+01  2.82574371713E+01  2.72545718925E+01
 2.45024342743E+01  2.06421958780E+01  1.64304484261E+01  7.05706976830E+00  5.30207145445E+00
 3.94478884320E+00  2.95537298918E+00  2.29086971252E+00  1.88200456402E+00  1.65603936903E+00
 1.55334179765E+00  1.53079195146E+00  1.56027216707E+00  1.62407796815E+00  1.71030848283E+00
 1.80959445183E+00  1.91331285523E+00  2.01330409976E+00  2.10220854206E+00  2.17402037858E+00
 2.22427958363E+00  2.25011580485E+00  2.25011441355E+00  2.22428289475E+00  2.17401816796E+00
 2.10221172175E+00  2.01329821676E+00  1.91331880323E+00  1.80959277536E+00  1.71030810526E+00
 1.62407762127E+00  1.56027753732E+00  1.53079072953E+00  1.55333568526E+00  1.65605088844E+00
 1.88196116428E+00  2.29096708654E+00  2.95527547322E+00  3.94485007569E+00  5.30218014483E+00
 7.05684920500E+00  9.15368396410E+00  1.14441913663E+01  1.36589192689E+01  1.54420624032E+01
 1.64442399876E+01  1.64442289648E+01  1.54420485968E+01  1.36588269859E+01  1.14440475312E+01
 9.15367191070E+00  4.18352284281E+00  3.25981464243E+00  2.56046019523E+00  2.07443982943E+00
 1.76627858412E+00  1.59277966032E+00  1.51574234415E+00  1.50545169567E+00  1.54161674942E+00
 1.61064575042E+00  1.70274234214E+00  1.80959445171E+00  1.92303949748E+00  2.03494673400E+00
 2.13760218806E+00  2.22436534629E+00  2.28998313904E+00  2.33079266725E+00  2.34462602028E+00
 2.33079203309E+00  2.28998212288E+00  2.22436546867E+00  2.13760125004E+00  2.03494997694E+00
 1.92303685027E+00  1.80959217100E+00  1.70274326312E+00  1.61064379713E+00  1.54161838367E+00
 1.50545561427E+00  1.51573185394E+00  1.59281376411E+00  1.76620166989E+00  2.07449486807E+00
 2.56045533388E+00  3.25968688346E+00  4.18366748159E+00  5.30218005102E+00  6.53251128260E+00
 7.82349216070E+00  8.92640438560E+00  9.68620420400E+00  9.95738509990E+00  9.68619412200E+00
 8.92645525100E+00  7.82359363070E+00  6.53265762950E+00  5.30207481878E+00  2.66849720953E+00
 2.20280839846E+00  1.86753361197E+00  1.64845265431E+00  1.52352104325E+00  1.47082678296E+00
 1.47177589370E+00  1.51314849514E+00  1.58534052175E+00  1.68085447827E+00  1.79266395518E+00
 1.91331285511E+00  2.03494673396E+00  2.14973896741E+00  2.25056581581E+00  2.33143379357E+00
 2.38782969580E+00  2.41675577392E+00  2.41675888916E+00  2.38782680268E+00  2.33143823158E+00
 2.25056173219E+00  2.14974455616E+00  2.03493834055E+00  1.91332054276E+00  1.79266563744E+00
 1.68085771321E+00  1.58533257652E+00  1.51314626866E+00  1.47178480467E+00  1.47080276648E+00
 1.52358374811E+00  1.64842096617E+00  1.86752631340E+00  2.20290431001E+00  2.66843031221E+00
 3.25968683873E+00  3.94484995582E+00  4.66147573023E+00  5.32288638148E+00  5.83403185674E+00
 6.11316979898E+00  6.11319227807E+00  5.83402156104E+00  5.32282049917E+00  4.66134031846E+00
 3.94478721273E+00  3.25981265812E+00  1.90905431503E+00  1.68939604777E+00  1.54155232774E+00
 1.45683824569E+00  1.42437584424E+00  1.43403492096E+00  1.47831466386E+00  1.55106069520E+00
 1.64700899052E+00  1.76051664621E+00  1.88505099871E+00  2.01330409966E+00  2.13760218802E+00
 2.25056581579E+00  2.34560301969E+00  2.41737523596E+00  2.46198269045E+00  2.47711257981E+00
 2.46198307193E+00  2.41737493098E+00  2.34560211435E+00  2.25056623456E+00  2.13760050268E+00
 2.01330858365E+00  1.88504357230E+00  1.76050951866E+00  1.64701698065E+00  1.55107258798E+00
 1.47830435906E+00  1.43405311844E+00  1.42431832557E+00  1.45686086778E+00  1.54155601909E+00
 1.68932898988E+00  1.90909036079E+00  2.20290428861E+00  2.56045527624E+00  2.95527536274E+00
 3.34513066389E+00  3.67798181870E+00  3.90279756526E+00  3.98231209365E+00  3.90278609425E+00
 3.67799660913E+00  3.34523859905E+00  2.95537144621E+00  2.56046144309E+00  2.20280924863E+00
 1.55063388053E+00  1.45454721153E+00  1.39961976114E+00  1.38177393085E+00  1.39677667040E+00
 1.44119598729E+00  1.51159809024E+00  1.60471900410E+00  1.71628443844E+00  1.84086136003E+00
 1.97192080670E+00  2.10220854199E+00  2.22436534626E+00  2.33143379356E+00  2.41737523595E+00
 2.47739378298E+00  2.50823055855E+00  2.50822793905E+00  2.47739569957E+00  2.41737274777E+00
 2.33143797002E+00  2.22436022247E+00  2.10221332908E+00  1.97191353652E+00  1.84086897291E+00
 1.71627741101E+00  1.60470327348E+00  1.51160091048E+00  1.44118896144E+00  1.39682347499E+00
 1.38176318684E+00  1.39961789500E+00  1.45460047433E+00  1.55060681070E+00  1.68932897962E+00
 1.86752628563E+00  2.07449481438E+00  2.29096699904E+00  2.49069663161E+00  2.64501653733E+00
 2.72934126533E+00  2.72933737581E+00  2.64502872264E+00  2.49064675979E+00  2.29086728385E+00
 2.07444234729E+00  1.86753270473E+00  1.68939619285E+00  1.39239590810E+00  1.35682673261E+00
 1.34767542536E+00  1.36434301187E+00  1.40593817315E+00  1.47109053471E+00  1.55816538391E+00
 1.66412410389E+00  1.78471081718E+00  1.91434651429E+00  2.04646008004E+00  2.17402037852E+00
 2.28998313901E+00  2.38782969578E+00  2.46198269044E+00  2.50823055855E+00  2.52393961849E+00
 2.50823078059E+00  2.46198383211E+00  2.38782852378E+00  2.28998252134E+00  2.17402517758E+00
 2.04646135988E+00  1.91436094575E+00  1.78472184638E+00  1.66412312882E+00  1.55815178584E+00
 1.47110046927E+00  1.40590736932E+00  1.36434821658E+00  1.34766568051E+00  1.35678916200E+00
 1.39241096321E+00  1.45460046939E+00  1.54155600569E+00  1.64842094007E+00  1.76620162682E+00
 1.88196110104E+00  1.98036616312E+00  2.04666201640E+00  2.07005284660E+00  2.04665832037E+00
 1.98038270504E+00  1.88201115896E+00  1.76628002085E+00  1.64844988705E+00  1.54155255142E+00
 1.45454668585E+00  1.33153008393E+00  1.32561729976E+00  1.34034950930E+00  1.37630541186E+00
 1.43358811274E+00  1.51169479183E+00  1.60862962069E+00  1.72132088546E+00  1.84523880182E+00
 1.97472677153E+00  2.10335447741E+00  2.22427958358E+00  2.33079266721E+00  2.41675577389E+00
 2.47711257979E+00  2.50822793904E+00  2.50823078058E+00  2.47710889648E+00  2.41675821156E+00
 2.33079033907E+00  2.22429052001E+00  2.10335610036E+00  1.97474685705E+00  1.84523692384E+00
 1.72134707685E+00  1.60866279400E+00  1.51166943796E+00  1.43359347317E+00  1.37631003183E+00
 1.34035612914E+00  1.32564861121E+00  1.33152330488E+00  1.35678915962E+00  1.39961788853E+00
 1.45686085508E+00  1.52358372695E+00  1.59281373259E+00  1.65605084559E+00  1.70448975235E+00
 1.73079073648E+00  1.73079884800E+00  1.70447364472E+00  1.65602928717E+00  1.59277504485E+00
 1.52351958827E+00  1.45684193000E+00  1.39961939032E+00  1.35682775833E+00  1.31833761296E+00
 1.32789511485E+00  1.35571977039E+00  1.40282470812E+00  1.46937929117E+00  1.55430498262E+00
 1.65562161568E+00  1.76983024021E+00  1.89232220767E+00  2.01746916847E+00  2.13892759486E+00
 2.25011580480E+00  2.34462602024E+00  2.41675888912E+00  2.46198307189E+00  2.47739569954E+00
 2.46198383209E+00  2.41675821155E+00  2.34462974858E+00  2.25012045103E+00  2.13891803438E+00
 2.01745618070E+00  1.89230202378E+00  1.76984436574E+00  1.65564714698E+00  1.55432427542E+00
 1.46932866884E+00  1.40282134608E+00  1.35575642506E+00  1.32786917451E+00  1.31833872647E+00
 1.32564861006E+00  1.34766567736E+00  1.38176318065E+00  1.42431831518E+00  1.47080275081E+00
 1.51573183229E+00  1.55333565756E+00  1.57836699207E+00  1.58717009725E+00  1.57837490674E+00
 1.55335437897E+00  1.51574966637E+00  1.47083105357E+00  1.42437622161E+00  1.38177044251E+00
 1.34767548544E+00  1.32561610375E+00  1.32943703356E+00  1.34692002936E+00  1.38179031903E+00
 1.43463770413E+00  1.50516395257E+00  1.59224001676E+00  1.69329305485E+00  1.80481043689E+00
 1.92209318542E+00  2.03954950986E+00  2.15101643010E+00  2.25011441348E+00  2.33079203302E+00
 2.38782680261E+00  2.41737493092E+00  2.41737274771E+00  2.38782852374E+00  2.33079033904E+00
 2.25012045100E+00  2.15100699828E+00  2.03954515250E+00  1.92205863434E+00  1.80480668381E+00
 1.69328819053E+00  1.59225546472E+00  1.50525985133E+00  1.43462159835E+00  1.38174412049E+00
 1.34694291298E+00  1.32939028634E+00  1.32786917396E+00  1.34035612763E+00  1.36434821358E+00
 1.39682346988E+00  1.43405311065E+00  1.47178479377E+00  1.50545560007E+00  1.53079071226E+00
 1.54438411938E+00  1.54437376658E+00  1.53077738609E+00  1.50544310744E+00  1.47176819145E+00
 1.43403327188E+00  1.39677499919E+00  1.36434793177E+00  1.34034831864E+00  1.32789757722E+00
 1.35212740386E+00  1.37299050389E+00  1.41040416480E+00  1.46466401318E+00  1.53520577504E+00
 1.62032824970E+00  1.71753901539E+00  1.82308732917E+00  1.93226537908E+00  2.03956500691E+00
 2.13892639030E+00  2.22428289463E+00  2.28998212276E+00  2.33143823146E+00  2.34560211424E+00
 2.33143796992E+00  2.28998252126E+00  2.22429051993E+00  2.13891803432E+00  2.03954515247E+00
 1.93222657268E+00  1.82307002905E+00  1.71749863816E+00  1.62034348051E+00  1.53524586171E+00
 1.46467152386E+00  1.41032185093E+00  1.37297414674E+00  1.35221710401E+00  1.34694291270E+00
 1.35575642430E+00  1.37631003034E+00  1.40590736678E+00  1.44118895759E+00  1.47830435357E+00
 1.51314626140E+00  1.54161837468E+00  1.56027752684E+00  1.56677295879E+00  1.56029289397E+00
 1.54162656673E+00  1.51315787883E+00  1.47831886709E+00  1.44119907044E+00  1.40593787835E+00
 1.37630219062E+00  1.35571919789E+00  1.34691816261E+00  1.37826094611E+00  1.39881503447E+00
 1.43532118736E+00  1.48764390491E+00  1.55483255274E+00  1.63521630652E+00  1.72588066290E+00
 1.82308132907E+00  1.92209274346E+00  2.01745423654E+00  2.10335431259E+00  2.17401816775E+00
 2.22436546845E+00  2.25056173199E+00  2.25056623436E+00  2.22436022230E+00  2.17402517743E+00
 2.10335610022E+00  2.01745618058E+00  1.92205863426E+00  1.82307002901E+00  1.72584293094E+00
 1.63521669980E+00  1.55494342994E+00  1.48764332944E+00  1.43529216681E+00  1.39881704912E+00
 1.37831849842E+00  1.37297414661E+00  1.38174412009E+00  1.40282134535E+00  1.43359347190E+00
 1.47110046730E+00  1.51160090769E+00  1.55107258429E+00  1.58533257187E+00  1.61064379159E+00
 1.62407761506E+00  1.62407769213E+00  1.61062627285E+00  1.58533256315E+00  1.55105280778E+00
 1.51159455295E+00  1.47108819985E+00  1.43358798235E+00  1.40282860047E+00  1.38179113123E+00
 1.37299156857E+00  1.40139264339E+00  1.41907204587E+00  1.45206773148E+00  1.49999880760E+00
 1.56176219301E+00  1.63521754280E+00  1.71754031364E+00  1.80481538593E+00  1.89232351315E+00
 1.97474286460E+00  2.04645931433E+00  2.10221172138E+00  2.13760124966E+00  2.14974455580E+00
 2.13760050234E+00  2.10221332879E+00  2.04646135963E+00  1.97474685681E+00  1.89230202360E+00
 1.80480668369E+00  1.71749863807E+00  1.63521669977E+00  1.56178807387E+00  1.50000699460E+00
 1.45207880484E+00  1.41906819551E+00  1.40141295322E+00  1.39881704906E+00  1.41032185076E+00
 1.43462159800E+00  1.46932866827E+00  1.51166943702E+00  1.55815178447E+00  1.60470327157E+00
 1.64701697824E+00  1.68085771030E+00  1.70274325978E+00  1.71030810162E+00  1.70274589295E+00
 1.68086994530E+00  1.64701762637E+00  1.60472388854E+00  1.55817003522E+00  1.51169527303E+00
 1.46938067070E+00  1.43463179770E+00  1.41040593060E+00  1.39881225558E+00  1.41714579062E+00
 1.43008568255E+00  1.45793735516E+00  1.50000136852E+00  1.55483460449E+00  1.62032385246E+00
 1.69329491105E+00  1.76982238971E+00  1.84523850120E+00  1.91432793224E+00  1.97192392945E+00
 2.01329821609E+00  2.03494997627E+00  2.03493833993E+00  2.01330858307E+00  1.97191353604E+00
 1.91436094535E+00  1.84523692348E+00  1.76984436548E+00  1.69328819032E+00  1.62034348040E+00
 1.55494342988E+00  1.50000699458E+00  1.45797049963E+00  1.43009099916E+00  1.41706483979E+00
 1.41906819548E+00  1.43529216675E+00  1.46467152369E+00  1.50525985106E+00  1.55432427496E+00
 1.60866279333E+00  1.66412312790E+00  1.71627740977E+00  1.76050951713E+00  1.79266563566E+00
 1.80959216903E+00  1.80959277327E+00  1.79266261780E+00  1.76050022006E+00  1.71627923838E+00
 1.66411776267E+00  1.60862759186E+00  1.55430282848E+00  1.50516533310E+00  1.46466636161E+00
 1.43532231392E+00  1.41907333623E+00  1.42263640185E+00  1.43008834634E+00  1.45206418508E+00
 1.48764287007E+00  1.53520351366E+00  1.59224397845E+00  1.65562005971E+00  1.72132991402E+00
 1.78471159452E+00  1.84088062808E+00  1.88504806522E+00  1.91331880203E+00  1.92303684912E+00
 1.91332054170E+00  1.88504357134E+00  1.84086897214E+00  1.78472184576E+00  1.72134707637E+00
 1.65564714660E+00  1.59225546447E+00  1.53524586158E+00  1.48764332935E+00  1.45207880483E+00
 1.43009099914E+00  1.42258244677E+00  1.43009099914E+00  1.45207880483E+00  1.48764332935E+00
 1.53524586158E+00  1.59225546447E+00  1.65564714660E+00  1.72134707637E+00  1.78472184576E+00
 1.84086897214E+00  1.88504357134E+00  1.91332054170E+00  1.92303684912E+00  1.91331880203E+00
 1.88504806522E+00  1.84088062808E+00  1.78471159452E+00  1.72132991402E+00  1.65562005971E+00
 1.59224397845E+00  1.53520351366E+00  1.48764287007E+00  1.45206418508E+00  1.43008834634E+00
 1.41714579062E+00  1.41907333623E+00  1.43532231392E+00  1.46466636161E+00  1.50516533310E+00
 1.55430282848E+00  1.60862759186E+00  1.66411776267E+00  1.71627923838E+00  1.76050022006E+00
 1.79266261780E+00  1.80959277327E+00  1.80959216903E+00  1.79266563566E+00  1.76050951713E+00
 1.71627740977E+00  1.66412312790E+00  1.60866279333E+00  1.55432427496E+00  1.50525985106E+00
 1.46467152369E+00  1.43529216675E+00  1.41906819548E+00  1.41706483979E+00  1.43009099916E+00
 1.45797049963E+00  1.50000699458E+00  1.55494342988E+00  1.62034348040E+00  1.69328819032E+00
 1.76984436548E+00  1.84523692348E+00  1.91436094535E+00  1.97191353604E+00  2.01330858307E+00
 2.03493833993E+00  2.03494997627E+00  2.01329821609E+00  1.97192392945E+00  1.91432793224E+00
 1.84523850120E+00  1.76982238971E+00  1.69329491105E+00  1.62032385246E+00  1.55483460449E+00
 1.50000136852E+00  1.45793735516E+00  1.43008568255E+00  1.40139264339E+00  1.39881225558E+00
 1.41040593060E+00  1.43463179770E+00  1.46938067070E+00  1.51169527303E+00  1.55817003522E+00
 1.60472388854E+00  1.64701762637E+00  1.68086994530E+00  1.70274589295E+00  1.71030810162E+00
 1.70274325978E+00  1.68085771030E+00  1.64701697824E+00  1.60470327157E+00  1.55815178447E+00
 1.51166943702E+00  1.46932866827E+00  1.43462159800E+00  1.41032185076E+00  1.39881704906E+00
 1.40141295322E+00  1.41906819551E+00  1.45207880484E+00  1.50000699460E+00  1.56178807387E+00
 1.63521669977E+00  1.71749863807E+00  1.80480668369E+00  1.89230202360E+00  1.97474685681E+00
 2.04646135963E+00  2.10221332879E+00  2.13760050234E+00  2.14974455580E+00  2.13760124966E+00
 2.10221172138E+00  2.04645931433E+00  1.97474286460E+00  1.89232351315E+00  1.80481538593E+00
 1.71754031364E+00  1.63521754280E+00  1.56176219301E+00  1.49999880760E+00  1.45206773148E+00
 1.41907204587E+00  1.37826094611E+00  1.37299156857E+00  1.38179113123E+00  1.40282860047E+00
 1.43358798235E+00  1.47108819985E+00  1.51159455295E+00  1.55105280778E+00  1.58533256315E+00
 1.61062627285E+00  1.62407769213E+00  1.62407761506E+00  1.61064379159E+00  1.58533257187E+00
 1.55107258429E+00  1.51160090769E+00  1.47110046730E+00  1.43359347190E+00  1.40282134535E+00
 1.38174412009E+00  1.37297414661E+00  1.37831849842E+00  1.39881704912E+00  1.43529216681E+00
 1.48764332944E+00  1.55494342994E+00  1.63521669980E+00  1.72584293094E+00  1.82307002901E+00
 1.92205863426E+00  2.01745618058E+00  2.10335610022E+00  2.17402517743E+00  2.22436022230E+00
 2.25056623436E+00  2.25056173199E+00  2.22436546845E+00  2.17401816775E+00  2.10335431259E+00
 2.01745423654E+00  1.92209274346E+00  1.82308132907E+00  1.72588066290E+00  1.63521630652E+00
 1.55483255274E+00  1.48764390491E+00  1.43532118736E+00  1.39881503447E+00  1.35212740386E+00
 1.34691816261E+00  1.35571919789E+00  1.37630219062E+00  1.40593787835E+00  1.44119907044E+00
 1.47831886709E+00  1.51315787883E+00  1.54162656673E+00  1.56029289397E+00  1.56677295879E+00
 1.56027752684E+00  1.54161837468E+00  1.51314626140E+00  1.47830435357E+00  1.44118895759E+00
 1.40590736678E+00  1.37631003034E+00  1.35575642430E+00  1.34694291270E+00  1.35221710401E+00
 1.37297414674E+00  1.41032185093E+00  1.46467152386E+00  1.53524586171E+00  1.62034348051E+00
 1.71749863816E+00  1.82307002905E+00  1.93222657268E+00  2.03954515247E+00  2.13891803432E+00
 2.22429051993E+00  2.28998252126E+00  2.33143796992E+00  2.34560211424E+00  2.33143823146E+00
 2.28998212276E+00  2.22428289463E+00  2.13892639030E+00  2.03956500691E+00  1.93226537908E+00
 1.82308732917E+00  1.71753901539E+00  1.62032824970E+00  1.53520577504E+00  1.46466401318E+00
 1.41040416480E+00  1.37299050389E+00  1.32943703356E+00  1.32789757722E+00  1.34034831864E+00
 1.36434793177E+00  1.39677499919E+00  1.43403327188E+00  1.47176819145E+00  1.50544310744E+00
 1.53077738609E+00  1.54437376658E+00  1.54438411938E+00  1.53079071226E+00  1.50545560007E+00
 1.47178479377E+00  1.43405311065E+00  1.39682346988E+00  1.36434821358E+00  1.34035612763E+00
 1.32786917396E+00  1.32939028634E+00  1.34694291298E+00  1.38174412049E+00  1.43462159835E+00
 1.50525985133E+00  1.59225546472E+00  1.69328819053E+00  1.80480668381E+00  1.92205863434E+00
 2.03954515250E+00  2.15100699828E+00  2.25012045100E+00  2.33079033904E+00  2.38782852374E+00
 2.41737274771E+00  2.41737493092E+00  2.38782680261E+00  2.33079203302E+00  2.25011441348E+00
 2.15101643010E+00  2.03954950986E+00  1.92209318542E+00  1.80481043689E+00  1.69329305485E+00
 1.59224001676E+00  1.50516395257E+00  1.43463770413E+00  1.38179031903E+00  1.34692002936E+00
 1.31833761296E+00  1.32561610375E+00  1.34767548544E+00  1.38177044251E+00  1.42437622161E+00
 1.47083105357E+00  1.51574966637E+00  1.55335437897E+00  1.57837490674E+00  1.58717009725E+00
 1.57836699207E+00  1.55333565756E+00  1.51573183229E+00  1.47080275081E+00  1.42431831518E+00
 1.38176318065E+00  1.34766567736E+00  1.32564861006E+00  1.31833872647E+00  1.32786917451E+00
 1.35575642506E+00  1.40282134608E+00  1.46932866884E+00  1.55432427542E+00  1.65564714698E+00
 1.76984436574E+00  1.89230202378E+00  2.01745618070E+00  2.13891803438E+00  2.25012045103E+00
 2.34462974858E+00  2.41675821155E+00  2.46198383209E+00  2.47739569954E+00  2.46198307189E+00
 2.41675888912E+00  2.34462602024E+00  2.25011580480E+00  2.13892759486E+00  2.01746916847E+00
 1.89232220767E+00  1.76983024021E+00  1.65562161568E+00  1.55430498262E+00  1.46937929117E+00
 1.40282470812E+00  1.35571977039E+00  1.32789511485E+00  1.33153008393E+00  1.35682775833E+00
 1.39961939032E+00  1.45684193000E+00  1.52351958827E+00  1.59277504485E+00  1.65602928717E+00
 1.70447364472E+00  1.73079884800E+00  1.73079073648E+00  1.70448975235E+00  1.65605084559E+00
 1.59281373259E+00  1.52358372695E+00  1.45686085508E+00  1.39961788853E+00  1.35678915962E+00
 1.33152330487E+00  1.32564861121E+00  1.34035612914E+00  1.37631003183E+00  1.43359347317E+00
 1.51166943796E+00  1.60866279400E+00  1.72134707685E+00  1.84523692384E+00  1.97474685705E+00
 2.10335610036E+00  2.22429052001E+00  2.33079033907E+00  2.41675821156E+00  2.47710889648E+00
 2.50823078058E+00  2.50822793904E+00  2.47711257979E+00  2.41675577389E+00  2.33079266721E+00
 2.22427958358E+00  2.10335447741E+00  1.97472677153E+00  1.84523880182E+00  1.72132088546E+00
 1.60862962069E+00  1.51169479183E+00  1.43358811274E+00  1.37630541186E+00  1.34034950930E+00
 1.32561729976E+00  1.39239590810E+00  1.45454668585E+00  1.54155255142E+00  1.64844988705E+00
 1.76628002085E+00  1.88201115896E+00  1.98038270504E+00  2.04665832037E+00  2.07005284660E+00
 2.04666201640E+00  1.98036616312E+00  1.88196110104E+00  1.76620162682E+00  1.64842094007E+00
 1.54155600569E+00  1.45460046939E+00  1.39241096321E+00  1.35678916200E+00  1.34766568051E+00
 1.36434821658E+00  1.40590736932E+00  1.47110046927E+00  1.55815178584E+00  1.66412312882E+00