   2   2   1   0
  0.2254249E+02  0.3994990E-09  0.3994990E-09  0.3994990E-09  0.5000000E-15
  1.000000000000000E-004
  CAR 
 unknown system                          
     21.60182654    -23.67043465  301     -0.69476210      1.00000000
    -23.670  0.0000E+00  0.0000E+00  0.0000E+00  0.0000E+00
    -23.520  0.0000E+00  0.0000E+00  0.0000E+00  0.0000E+00
    -23.369  0.0000E+00  0.0000E+00  0.0000E+00  0.0000E+00
    -23.218  0.0000E+00  0.0000E+00  0.0000E+00  0.0000E+00
    -23.067  0.0000E+00  0.0000E+00  0.0000E+00  0.0000E+00
    -22.916  0.0000E+00  0.0000E+00  0.0000E+00  0.0000E+00
    -22.765  0.0000E+00  0.0000E+00  0.0000E+00  0.0000E+00
    -22.614  0.0000E+00  0.0000E+00  0.0000E+00  0.0000E+00
    -22.463  0.0000E+00  0.0000E+00  0.0000E+00  0.0000E+00
    -22.312  0.0000E+00  0.0000E+00  0.0000E+00  0.0000E+00
    -22.161  0.0000E+00  0.0000E+00  0.0000E+00  0.0000E+00
    -22.010  0.0000E+00  0.0000E+00  0.0000E+00  0.0000E+00
    -21.860  0.0000E+00  0.0000E+00  0.0000E+00  0.0000E+00
    -21.709  0.0000E+00  0.0000E+00  0.0000E+00  0.0000E+00
    -21.558  0.0000E+00  0.0000E+00  0.3000E+01  0.3000E+01
    -21.407  0.0000E+00  0.0000E+00  0.3000E+01  0.3000E+01
    -21.256  0.0000E+00  0.0000E+00  0.3000E+01  0.3000E+01
    -21.105  0.0000E+00  0.0000E+00  0.3000E+01  0.3000E+01
    -20.954  0.0000E+00  0.0000E+00  0.3000E+01  0.3000E+01
    -20.803  0.0000E+00  0.0000E+00  0.3000E+01  0.3000E+01
    -20.652  0.0000E+00  0.0000E+00  0.3000E+01  0.3000E+01
    -20.501  0.0000E+00  0.0000E+00  0.3000E+01  0.3000E+01
    -20.350  0.0000E+00  0.0000E+00  0.3000E+01  0.3000E+01
    -20.200  0.0000E+00  0.0000E+00  0.3000E+01  0.3000E+01
    -20.049  0.0000E+00  0.0000E+00  0.3000E+01  0.3000E+01
    -19.898  0.0000E+00  0.0000E+00  0.3000E+01  0.3000E+01
    -19.747  0.0000E+00  0.0000E+00  0.3000E+01  0.3000E+01
    -19.596  0.0000E+00  0.0000E+00  0.3000E+01  0.3000E+01
    -19.445  0.0000E+00  0.0000E+00  0.3000E+01  0.3000E+01
    -19.294  0.0000E+00  0.0000E+00  0.3000E+01  0.3000E+01
    -19.143  0.0000E+00  0.0000E+00  0.3000E+01  0.3000E+01
    -18.992  0.0000E+00  0.0000E+00  0.3000E+01  0.3000E+01
    -18.841  0.0000E+00  0.0000E+00  0.3000E+01  0.3000E+01
    -18.690  0.0000E+00  0.0000E+00  0.3000E+01  0.3000E+01
    -18.540  0.0000E+00  0.0000E+00  0.3000E+01  0.3000E+01
    -18.389  0.0000E+00  0.0000E+00  0.3000E+01  0.3000E+01
    -18.238  0.0000E+00  0.0000E+00  0.3000E+01  0.3000E+01
    -18.087  0.0000E+00  0.0000E+00  0.3000E+01  0.3000E+01
    -17.936  0.0000E+00  0.0000E+00  0.3000E+01  0.3000E+01
    -17.785  0.0000E+00  0.0000E+00  0.3000E+01  0.3000E+01
    -17.634  0.0000E+00  0.0000E+00  0.3000E+01  0.3000E+01
    -17.483  0.0000E+00  0.0000E+00  0.3000E+01  0.3000E+01
    -17.332  0.0000E+00  0.0000E+00  0.3000E+01  0.3000E+01
    -17.181  0.0000E+00  0.0000E+00  0.3000E+01  0.3000E+01
    -17.031  0.0000E+00  0.0000E+00  0.3000E+01  0.3000E+01
    -16.880  0.0000E+00  0.0000E+00  0.3000E+01  0.3000E+01
    -16.729  0.0000E+00  0.0000E+00  0.3000E+01  0.3000E+01
    -16.578  0.0000E+00  0.0000E+00  0.3000E+01  0.3000E+01
    -16.427  0.0000E+00  0.0000E+00  0.3000E+01  0.3000E+01
    -16.276  0.0000E+00  0.0000E+00  0.3000E+01  0.3000E+01
    -16.125  0.0000E+00  0.0000E+00  0.3000E+01  0.3000E+01
    -15.974  0.0000E+00  0.0000E+00  0.3000E+01  0.3000E+01
    -15.823  0.0000E+00  0.0000E+00  0.3000E+01  0.3000E+01
    -15.672  0.0000E+00  0.0000E+00  0.3000E+01  0.3000E+01
    -15.521  0.0000E+00  0.0000E+00  0.3000E+01  0.3000E+01
    -15.371  0.0000E+00  0.0000E+00  0.3000E+01  0.3000E+01
    -15.220  0.0000E+00  0.0000E+00  0.3000E+01  0.3000E+01
    -15.069  0.0000E+00  0.0000E+00  0.3000E+01  0.3000E+01
    -14.918  0.0000E+00  0.0000E+00  0.3000E+01  0.3000E+01
    -14.767  0.0000E+00  0.0000E+00  0.3000E+01  0.3000E+01
    -14.616  0.0000E+00  0.0000E+00  0.3000E+01  0.3000E+01
    -14.465  0.0000E+00  0.0000E+00  0.3000E+01  0.3000E+01
    -14.314  0.0000E+00  0.0000E+00  0.3000E+01  0.3000E+01
    -14.163  0.0000E+00  0.0000E+00  0.3000E+01  0.3000E+01
    -14.012  0.0000E+00  0.0000E+00  0.3000E+01  0.3000E+01
    -13.861  0.0000E+00  0.0000E+00  0.3000E+01  0.3000E+01
    -13.711  0.0000E+00  0.0000E+00  0.3000E+01  0.3000E+01
    -13.560  0.0000E+00  0.0000E+00  0.3000E+01  0.3000E+01
    -13.409  0.3327E-02  0.2757E-02  0.3000E+01  0.3000E+01
    -13.258  0.9186E+00  0.9153E+00  0.3070E+01  0.3070E+01
    -13.107  0.4106E+01  0.4078E+01  0.3359E+01  0.3357E+01
    -12.956  0.0000E+00  0.0000E+00  0.4000E+01  0.4000E+01
    -12.805  0.0000E+00  0.0000E+00  0.4000E+01  0.4000E+01
    -12.654  0.0000E+00  0.0000E+00  0.4000E+01  0.4000E+01
    -12.503  0.0000E+00  0.0000E+00  0.4000E+01  0.4000E+01
    -12.352  0.0000E+00  0.0000E+00  0.4000E+01  0.4000E+01
    -12.201  0.0000E+00  0.0000E+00  0.4000E+01  0.4000E+01
    -12.051  0.0000E+00  0.0000E+00  0.4000E+01  0.4000E+01
    -11.900  0.0000E+00  0.0000E+00  0.4000E+01  0.4000E+01
    -11.749  0.0000E+00  0.0000E+00  0.4000E+01  0.4000E+01
    -11.598  0.0000E+00  0.0000E+00  0.4000E+01  0.4000E+01
    -11.447  0.0000E+00  0.0000E+00  0.4000E+01  0.4000E+01
    -11.296  0.0000E+00  0.0000E+00  0.4000E+01  0.4000E+01
    -11.145  0.0000E+00  0.0000E+00  0.4000E+01  0.4000E+01
    -10.994  0.0000E+00  0.0000E+00  0.4000E+01  0.4000E+01
    -10.843  0.0000E+00  0.0000E+00  0.4000E+01  0.4000E+01
    -10.692  0.0000E+00  0.0000E+00  0.4000E+01  0.4000E+01
    -10.541  0.0000E+00  0.0000E+00  0.4000E+01  0.4000E+01
    -10.391  0.0000E+00  0.0000E+00  0.4000E+01  0.4000E+01
    -10.240  0.0000E+00  0.0000E+00  0.4000E+01  0.4000E+01
    -10.089  0.0000E+00  0.0000E+00  0.4000E+01  0.4000E+01
     -9.938  0.0000E+00  0.0000E+00  0.4000E+01  0.4000E+01
     -9.787  0.0000E+00  0.0000E+00  0.4000E+01  0.4000E+01
     -9.636  0.0000E+00  0.0000E+00  0.4000E+01  0.4000E+01
     -9.485  0.0000E+00  0.0000E+00  0.4000E+01  0.4000E+01
     -9.334  0.0000E+00  0.0000E+00  0.4000E+01  0.4000E+01
     -9.183  0.0000E+00  0.0000E+00  0.4000E+01  0.4000E+01
     -9.032  0.0000E+00  0.0000E+00  0.4000E+01  0.4000E+01
     -8.881  0.0000E+00  0.0000E+00  0.4000E+01  0.4000E+01
     -8.731  0.0000E+00  0.0000E+00  0.4000E+01  0.4000E+01
     -8.580  0.0000E+00  0.0000E+00  0.4000E+01  0.4000E+01
     -8.429  0.0000E+00  0.0000E+00  0.4000E+01  0.4000E+01
     -8.278  0.0000E+00  0.0000E+00  0.4000E+01  0.4000E+01
     -8.127  0.0000E+00  0.0000E+00  0.4000E+01  0.4000E+01
     -7.976  0.0000E+00  0.0000E+00  0.4000E+01  0.4000E+01
     -7.825  0.0000E+00  0.0000E+00  0.4000E+01  0.4000E+01
     -7.674  0.0000E+00  0.0000E+00  0.4000E+01  0.4000E+01
     -7.523  0.0000E+00  0.0000E+00  0.4000E+01  0.4000E+01
     -7.372  0.0000E+00  0.0000E+00  0.4000E+01  0.4000E+01
     -7.222  0.0000E+00  0.0000E+00  0.4000E+01  0.4000E+01
     -7.071  0.0000E+00  0.0000E+00  0.4000E+01  0.4000E+01
     -6.920  0.0000E+00  0.0000E+00  0.4000E+01  0.4000E+01
     -6.769  0.0000E+00  0.0000E+00  0.4000E+01  0.4000E+01
     -6.618  0.0000E+00  0.0000E+00  0.4000E+01  0.4000E+01
     -6.467  0.0000E+00  0.0000E+00  0.4000E+01  0.4000E+01
     -6.316  0.0000E+00  0.0000E+00  0.4000E+01  0.4000E+01
     -6.165  0.0000E+00  0.0000E+00  0.4000E+01  0.4000E+01
     -6.014  0.0000E+00  0.0000E+00  0.4000E+01  0.4000E+01
     -5.863  0.0000E+00  0.0000E+00  0.4000E+01  0.4000E+01
     -5.712  0.0000E+00  0.0000E+00  0.4000E+01  0.4000E+01
     -5.562  0.0000E+00  0.0000E+00  0.4000E+01  0.4000E+01
     -5.411  0.0000E+00  0.0000E+00  0.4000E+01  0.4000E+01
     -5.260  0.0000E+00  0.0000E+00  0.4000E+01  0.4000E+01
     -5.109  0.0000E+00  0.0000E+00  0.4000E+01  0.4000E+01
     -4.958  0.0000E+00  0.0000E+00  0.4000E+01  0.4000E+01
     -4.807  0.0000E+00  0.0000E+00  0.4000E+01  0.4000E+01
     -4.656  0.0000E+00  0.0000E+00  0.4000E+01  0.4000E+01
     -4.505  0.0000E+00  0.0000E+00  0.4000E+01  0.4000E+01
     -4.354  0.0000E+00  0.0000E+00  0.4000E+01  0.4000E+01
     -4.203  0.0000E+00  0.0000E+00  0.4000E+01  0.4000E+01
     -4.052  0.0000E+00  0.0000E+00  0.4000E+01  0.4000E+01
     -3.902  0.0000E+00  0.0000E+00  0.4000E+01  0.4000E+01
     -3.751  0.0000E+00  0.0000E+00  0.4000E+01  0.4000E+01
     -3.600  0.0000E+00  0.0000E+00  0.4000E+01  0.4000E+01
     -3.449  0.0000E+00  0.0000E+00  0.4000E+01  0.4000E+01
     -3.298  0.0000E+00  0.0000E+00  0.4000E+01  0.4000E+01
     -3.147  0.0000E+00  0.0000E+00  0.4000E+01  0.4000E+01
     -2.996  0.0000E+00  0.0000E+00  0.4000E+01  0.4000E+01
     -2.845  0.0000E+00  0.0000E+00  0.4000E+01  0.4000E+01
     -2.694  0.0000E+00  0.0000E+00  0.4000E+01  0.4000E+01
     -2.543  0.4282E+00  0.4316E+00  0.4017E+01  0.4016E+01
     -2.392  0.8519E+00  0.8493E+00  0.4107E+01  0.4107E+01
     -2.242  0.4035E+01  0.4188E+01  0.4455E+01  0.4452E+01
     -2.091  0.9930E+00  0.9971E+00  0.4767E+01  0.4767E+01
     -1.940  0.5022E+00  0.5019E+00  0.4868E+01  0.4868E+01
     -1.789  0.9020E+00  0.8985E+00  0.4965E+01  0.4965E+01
     -1.638  0.1210E+01  0.1209E+01  0.5134E+01  0.5133E+01
     -1.487  0.1436E+01  0.1436E+01  0.5341E+01  0.5340E+01
     -1.336  0.2968E+01  0.2951E+01  0.5624E+01  0.5622E+01
     -1.185  0.3473E+01  0.3473E+01  0.6107E+01  0.6104E+01
     -1.034  0.3278E+01  0.3293E+01  0.6628E+01  0.6626E+01
     -0.883  0.1001E+01  0.1008E+01  0.6931E+01  0.6930E+01
     -0.732  0.0000E+00  0.0000E+00  0.7000E+01  0.7000E+01
     -0.582  0.0000E+00  0.0000E+00  0.7000E+01  0.7000E+01
     -0.431  0.0000E+00  0.0000E+00  0.7000E+01  0.7000E+01
     -0.280  0.0000E+00  0.0000E+00  0.7000E+01  0.7000E+01
     -0.129  0.0000E+00  0.0000E+00  0.7000E+01  0.7000E+01
      0.022  0.0000E+00  0.0000E+00  0.7000E+01  0.7000E+01
      0.173  0.0000E+00  0.0000E+00  0.7000E+01  0.7000E+01
      0.324  0.0000E+00  0.0000E+00  0.7000E+01  0.7000E+01
      0.475  0.0000E+00  0.0000E+00  0.7000E+01  0.7000E+01
      0.626  0.0000E+00  0.0000E+00  0.7000E+01  0.7000E+01
      0.777  0.0000E+00  0.0000E+00  0.7000E+01  0.7000E+01
      0.927  0.0000E+00  0.0000E+00  0.7000E+01  0.7000E+01
      1.078  0.0000E+00  0.0000E+00  0.7000E+01  0.7000E+01
      1.229  0.0000E+00  0.0000E+00  0.7000E+01  0.7000E+01
      1.380  0.0000E+00  0.0000E+00  0.7000E+01  0.7000E+01
      1.531  0.0000E+00  0.0000E+00  0.7000E+01  0.7000E+01
      1.682  0.0000E+00  0.0000E+00  0.7000E+01  0.7000E+01
      1.833  0.0000E+00  0.0000E+00  0.7000E+01  0.7000E+01
      1.984  0.0000E+00  0.0000E+00  0.7000E+01  0.7000E+01
      2.135  0.0000E+00  0.0000E+00  0.7000E+01  0.7000E+01
      2.286  0.0000E+00  0.0000E+00  0.7000E+01  0.7000E+01
      2.437  0.0000E+00  0.0000E+00  0.7000E+01  0.7000E+01
      2.587  0.0000E+00  0.0000E+00  0.7000E+01  0.7000E+01
      2.738  0.0000E+00  0.0000E+00  0.7000E+01  0.7000E+01
      2.889  0.0000E+00  0.0000E+00  0.7000E+01  0.7000E+01
      3.040  0.0000E+00  0.0000E+00  0.7000E+01  0.7000E+01
      3.191  0.0000E+00  0.0000E+00  0.7000E+01  0.7000E+01
      3.342  0.0000E+00  0.0000E+00  0.7000E+01  0.7000E+01
      3.493  0.0000E+00  0.0000E+00  0.7000E+01  0.7000E+01
      3.644  0.0000E+00  0.0000E+00  0.7000E+01  0.7000E+01
      3.795  0.0000E+00  0.0000E+00  0.7000E+01  0.7000E+01
      3.946  0.0000E+00  0.0000E+00  0.7000E+01  0.7000E+01
      4.097  0.0000E+00  0.0000E+00  0.7000E+01  0.7000E+01
      4.247  0.0000E+00  0.0000E+00  0.7000E+01  0.7000E+01
      4.398  0.7230E-03  0.7135E-03  0.7000E+01  0.7000E+01
      4.549  0.5844E-02  0.5817E-02  0.7000E+01  0.7000E+01
      4.700  0.1588E-01  0.1583E-01  0.7002E+01  0.7002E+01
      4.851  0.3082E-01  0.3076E-01  0.7005E+01  0.7005E+01
      5.002  0.4319E-01  0.4317E-01  0.7011E+01  0.7011E+01
      5.153  0.5031E-01  0.5028E-01  0.7018E+01  0.7018E+01
      5.304  0.6095E-01  0.6091E-01  0.7027E+01  0.7027E+01
      5.455  0.7251E-01  0.7247E-01  0.7037E+01  0.7037E+01
      5.606  0.8500E-01  0.8496E-01  0.7049E+01  0.7049E+01
      5.757  0.9842E-01  0.9838E-01  0.7062E+01  0.7062E+01
      5.907  0.1146E+00  0.1145E+00  0.7078E+01  0.7078E+01
      6.058  0.1356E+00  0.1355E+00  0.7097E+01  0.7097E+01
      6.209  0.1677E+00  0.1675E+00  0.7120E+01  0.7120E+01
      6.360  0.2095E+00  0.2093E+00  0.7148E+01  0.7148E+01
      6.511  0.2701E+00  0.2699E+00  0.7184E+01  0.7184E+01
      6.662  0.3658E+00  0.3655E+00  0.7232E+01  0.7232E+01
      6.813  0.4740E+00  0.4736E+00  0.7295E+01  0.7295E+01
      6.964  0.5766E+00  0.5756E+00  0.7376E+01  0.7375E+01
      7.115  0.6713E+00  0.6703E+00  0.7468E+01  0.7467E+01
      7.266  0.6873E+00  0.6876E+00  0.7573E+01  0.7572E+01
      7.417  0.6674E+00  0.6679E+00  0.7675E+01  0.7674E+01
      7.567  0.7198E+00  0.7201E+00  0.7780E+01  0.7779E+01
      7.718  0.8751E+00  0.8746E+00  0.7898E+01  0.7898E+01
      7.869  0.6380E+00  0.6401E+00  0.8024E+01  0.8024E+01
      8.020  0.3113E+00  0.3112E+00  0.8095E+01  0.8095E+01
      8.171  0.4077E+00  0.4073E+00  0.8149E+01  0.8149E+01
      8.322  0.5153E+00  0.5146E+00  0.8219E+01  0.8219E+01
      8.473  0.6400E+00  0.6389E+00  0.8306E+01  0.8306E+01
      8.624  0.1014E+01  0.1013E+01  0.8444E+01  0.8444E+01
      8.775  0.7265E+00  0.7276E+00  0.8570E+01  0.8569E+01
      8.926  0.7884E+00  0.7889E+00  0.8684E+01  0.8683E+01
      9.077  0.7701E+00  0.7707E+00  0.8804E+01  0.8804E+01
      9.227  0.1336E+01  0.1336E+01  0.8964E+01  0.8963E+01
      9.378  0.1373E+01  0.1371E+01  0.9176E+01  0.9175E+01
      9.529  0.1476E+01  0.1473E+01  0.9387E+01  0.9386E+01
      9.680  0.8916E+00  0.8916E+00  0.9555E+01  0.9555E+01
      9.831  0.7274E+00  0.7278E+00  0.9677E+01  0.9676E+01
      9.982  0.5456E+00  0.5463E+00  0.9773E+01  0.9772E+01
     10.133  0.3865E+00  0.3874E+00  0.9843E+01  0.9842E+01
     10.284  0.2366E+00  0.2353E+00  0.9894E+01  0.9894E+01
     10.435  0.4278E+00  0.4247E+00  0.9942E+01  0.9941E+01
     10.586  0.6449E+00  0.6422E+00  0.1003E+02  0.1003E+02
     10.736  0.6577E+00  0.6569E+00  0.1013E+02  0.1013E+02
     10.887  0.7825E+00  0.7815E+00  0.1024E+02  0.1023E+02
     11.038  0.9891E+00  0.9849E+00  0.1037E+02  0.1036E+02
     11.189  0.1139E+01  0.1146E+01  0.1053E+02  0.1053E+02
     11.340  0.6726E+00  0.6768E+00  0.1066E+02  0.1066E+02
     11.491  0.5213E+00  0.5218E+00  0.1075E+02  0.1075E+02
     11.642  0.5200E+00  0.5200E+00  0.1083E+02  0.1083E+02
     11.793  0.5235E+00  0.5239E+00  0.1091E+02  0.1091E+02
     11.944  0.5030E+00  0.5037E+00  0.1098E+02  0.1098E+02
     12.095  0.4036E+00  0.4041E+00  0.1105E+02  0.1105E+02
     12.246  0.3755E+00  0.3751E+00  0.1111E+02  0.1111E+02
     12.396  0.4081E+00  0.4078E+00  0.1117E+02  0.1117E+02
     12.547  0.4191E+00  0.4192E+00  0.1123E+02  0.1123E+02
     12.698  0.4266E+00  0.4264E+00  0.1130E+02  0.1130E+02
     12.849  0.4547E+00  0.4545E+00  0.1136E+02  0.1136E+02
     13.000  0.4714E+00  0.4714E+00  0.1143E+02  0.1143E+02
     13.151  0.8549E+00  0.8534E+00  0.1154E+02  0.1154E+02
     13.302  0.9033E+00  0.9023E+00  0.1167E+02  0.1167E+02
     13.453  0.8850E+00  0.8863E+00  0.1181E+02  0.1181E+02
     13.604  0.6945E+00  0.6961E+00  0.1193E+02  0.1193E+02
     13.755  0.5510E+00  0.5521E+00  0.1203E+02  0.1203E+02
     13.906  0.2743E+00  0.2744E+00  0.1211E+02  0.1211E+02
     14.056  0.2795E+00  0.2793E+00  0.1215E+02  0.1215E+02
     14.207  0.3354E+00  0.3348E+00  0.1220E+02  0.1220E+02
     14.358  0.4879E+00  0.4867E+00  0.1226E+02  0.1226E+02
     14.509  0.5824E+00  0.5684E+00  0.1234E+02  0.1234E+02
     14.660  0.1387E+01  0.1379E+01  0.1251E+02  0.1250E+02
     14.811  0.1430E+01  0.1427E+01  0.1276E+02  0.1275E+02
     14.962  0.5765E+00  0.5791E+00  0.1290E+02  0.1290E+02
     15.113  0.3922E+00  0.3937E+00  0.1297E+02  0.1297E+02
     15.264  0.3476E+00  0.3483E+00  0.1303E+02  0.1303E+02
     15.415  0.3342E+00  0.3347E+00  0.1308E+02  0.1308E+02
     15.566  0.3776E+00  0.3776E+00  0.1313E+02  0.1313E+02
     15.716  0.4106E+00  0.4104E+00  0.1319E+02  0.1319E+02
     15.867  0.4621E+00  0.4619E+00  0.1326E+02  0.1326E+02
     16.018  0.7199E+00  0.7171E+00  0.1335E+02  0.1335E+02
     16.169  0.1128E+01  0.1125E+01  0.1349E+02  0.1349E+02
     16.320  0.1252E+01  0.1253E+01  0.1367E+02  0.1367E+02
     16.471  0.9503E+00  0.9518E+00  0.1385E+02  0.1384E+02
     16.622  0.6817E+00  0.6863E+00  0.1397E+02  0.1397E+02
     16.773  0.8105E+00  0.8101E+00  0.1407E+02  0.1407E+02
     16.924  0.1059E+01  0.1056E+01  0.1420E+02  0.1420E+02
     17.075  0.9672E+00  0.9661E+00  0.1436E+02  0.1436E+02
     17.226  0.1111E+01  0.1110E+01  0.1451E+02  0.1451E+02
     17.376  0.1281E+01  0.1281E+01  0.1469E+02  0.1469E+02
     17.527  0.1228E+01  0.1230E+01  0.1489E+02  0.1489E+02
     17.678  0.8304E+00  0.8329E+00  0.1504E+02  0.1504E+02
     17.829  0.7771E+00  0.7809E+00  0.1516E+02  0.1516E+02
     17.980  0.1007E+01  0.1012E+01  0.1529E+02  0.1529E+02
     18.131  0.1219E+01  0.1228E+01  0.1546E+02  0.1546E+02
     18.282  0.1236E+01  0.1244E+01  0.1565E+02  0.1565E+02
     18.433  0.9205E+00  0.9007E+00  0.1581E+02  0.1582E+02
     18.584  0.4447E+00  0.4377E+00  0.1592E+02  0.1592E+02
     18.735  0.1716E+00  0.1707E+00  0.1597E+02  0.1597E+02
     18.885  0.8388E-01  0.8303E-01  0.1598E+02  0.1598E+02
     19.036  0.4247E-01  0.4193E-01  0.1599E+02  0.1599E+02
     19.187  0.1758E-01  0.1747E-01  0.1600E+02  0.1600E+02
     19.338  0.5769E-02  0.5764E-02  0.1600E+02  0.1600E+02
     19.489  0.4102E-03  0.4098E-03  0.1600E+02  0.1600E+02
     19.640  0.0000E+00  0.0000E+00  0.1600E+02  0.1600E+02
     19.791  0.0000E+00  0.0000E+00  0.1600E+02  0.1600E+02
     19.942  0.0000E+00  0.0000E+00  0.1600E+02  0.1600E+02
     20.093  0.0000E+00  0.0000E+00  0.1600E+02  0.1600E+02
     20.244  0.0000E+00  0.0000E+00  0.1600E+02  0.1600E+02
     20.395  0.0000E+00  0.0000E+00  0.1600E+02  0.1600E+02
     20.545  0.0000E+00  0.0000E+00  0.1600E+02  0.1600E+02
     20.696  0.0000E+00  0.0000E+00  0.1600E+02  0.1600E+02
     20.847  0.0000E+00  0.0000E+00  0.1600E+02  0.1600E+02
     20.998  0.0000E+00  0.0000E+00  0.1600E+02  0.1600E+02
     21.149  0.0000E+00  0.0000E+00  0.1600E+02  0.1600E+02
     21.300  0.0000E+00  0.0000E+00  0.1600E+02  0.1600E+02
     21.451  0.0000E+00  0.0000E+00  0.1600E+02  0.1600E+02
     21.602  0.0000E+00  0.0000E+00  0.1600E+02  0.1600E+02
     21.60182654    -23.67043465  301     -0.69476210      1.00000000
    -23.670  0.0000E+00  0.0000E+00  0.0000E+00  0.0000E+00  0.0000E+00  0.0000E+00  0.0000E+00  0.0000E+00  0.0000E+00  0.0000E+00  0.0000E+00  0.0000E+00  0.0000E+00  0.0000E+00  0.0000E+00  0.0000E+00  0.0000E+00  0.0000E+00
    -23.520  0.0000E+00  0.0000E+00  0.0000E+00  0.0000E+00  0.0000E+00  0.0000E+00  0.0000E+00  0.0000E+00  0.0000E+00  0.0000E+00  0.0000E+00  0.0000E+00  0.0000E+00  0.0000E+00  0.0000E+00  0.0000E+00  0.0000E+00  0.0000E+00
    -23.369  0.0000E+00  0.0000E+00  0.0000E+00  0.0000E+00  0.0000E+00  0.0000E+00  0.0000E+00  0.0000E+00  0.0000E+00  0.0000E+00  0.0000E+00  0.0000E+00  0.0000E+00  0.0000E+00  0.0000E+00  0.0000E+00  0.0000E+00  0.0000E+00
    -23.218  0.0000E+00  0.0000E+00  0.0000E+00  0.0000E+00  0.0000E+00  0.0000E+00  0.0000E+00  0.0000E+00  0.0000E+00  0.0000E+00  0.0000E+00  0.0000E+00  0.0000E+00  0.0000E+00  0.0000E+00  0.0000E+00  0.0000E+00  0.0000E+00
    -23.067  0.0000E+00  0.0000E+00  0.0000E+00  0.0000E+00  0.0000E+00  0.0000E+00  0.0000E+00  0.0000E+00  0.0000E+00  0.0000E+00  0.0000E+00  0.0000E+00  0.0000E+00  0.0000E+00  0.0000E+00  0.0000E+00  0.0000E+00  0.0000E+00
    -22.916  0.0000E+00  0.0000E+00  0.0000E+00  0.0000E+00  0.0000E+00  0.0000E+00  0.0000E+00  0.0000E+00  0.0000E+00  0.0000E+00  0.0000E+00  0.0000E+00  0.0000E+00  0.0000E+00  0.0000E+00  0.0000E+00  0.0000E+00  0.0000E+00
    -22.765  0.0000E+00  0.0000E+00  0.0000E+00  0.0000E+00  0.0000E+00  0.0000E+00  0.0000E+00  0.0000E+00  0.0000E+00  0.0000E+00  0.0000E+00  0.0000E+00  0.0000E+00  0.0000E+00  0.0000E+00  0.0000E+00  0.0000E+00  0.0000E+00
    -22.614  0.0000E+00  0.0000E+00  0.0000E+00  0.0000E+00  0.0000E+00  0.0000E+00  0.0000E+00  0.0000E+00  0.0000E+00  0.0000E+00  0.0000E+00  0.0000E+00  0.0000E+00  0.0000E+00  0.0000E+00  0.0000E+00  0.0000E+00  0.0000E+00
    -22.463  0.0000E+00  0.0000E+00  0.0000E+00  0.0000E+00  0.0000E+00  0.0000E+00  0.0000E+00  0.0000E+00  0.0000E+00  0.0000E+00  0.0000E+00  0.0000E+00  0.0000E+00  0.0000E+00  0.0000E+00  0.0000E+00  0.0000E+00  0.0000E+00
    -22.312  0.0000E+00  0.0000E+00  0.0000E+00  0.0000E+00  0.0000E+00  0.0000E+00  0.0000E+00  0.0000E+00  0.0000E+00  0.0000E+00  0.0000E+00  0.0000E+00  0.0000E+00  0.0000E+00  0.0000E+00  0.0000E+00  0.0000E+00  0.0000E+00
    -22.161  0.0000E+00  0.0000E+00  0.0000E+00  0.0000E+00  0.0000E+00  0.0000E+00  0.0000E+00  0.0000E+00  0.0000E+00  0.0000E+00  0.0000E+00  0.0000E+00  0.0000E+00  0.0000E+00  0.0000E+00  0.0000E+00  0.0000E+00  0.0000E+00
    -22.010  0.0000E+00  0.0000E+00  0.0000E+00  0.0000E+00  0.0000E+00  0.0000E+00  0.0000E+00  0.0000E+00  0.0000E+00  0.0000E+00  0.0000E+00  0.0000E+00  0.0000E+00  0.0000E+00  0.0000E+00  0.0000E+00  0.0000E+00  0.0000E+00
    -21.860  0.0000E+00  0.0000E+00  0.0000E+00  0.0000E+00  0.0000E+00  0.0000E+00  0.0000E+00  0.0000E+00  0.0000E+00  0.0000E+00  0.0000E+00  0.0000E+00  0.0000E+00  0.0000E+00  0.0000E+00  0.0000E+00  0.0000E+00  0.0000E+00
    -21.709  0.0000E+00  0.0000E+00  0.0000E+00  0.0000E+00  0.0000E+00  0.0000E+00  0.0000E+00  0.0000E+00  0.0000E+00  0.0000E+00  0.0000E+00  0.0000E+00  0.0000E+00  0.0000E+00  0.0000E+00  0.0000E+00  0.0000E+00  0.0000E+00
    -21.558  0.0000E+00  0.0000E+00  0.0000E+00  0.0000E+00  0.0000E+00  0.0000E+00  0.0000E+00  0.0000E+00  0.0000E+00  0.0000E+00  0.0000E+00  0.0000E+00  0.0000E+00  0.0000E+00  0.0000E+00  0.0000E+00  0.0000E+00  0.0000E+00
    -21.407  0.0000E+00  0.0000E+00  0.0000E+00  0.0000E+00  0.0000E+00  0.0000E+00  0.0000E+00  0.0000E+00  0.0000E+00  0.0000E+00  0.0000E+00  0.0000E+00  0.0000E+00  0.0000E+00  0.0000E+00  0.0000E+00  0.0000E+00  0.0000E+00
    -21.256  0.0000E+00  0.0000E+00  0.0000E+00  0.0000E+00  0.0000E+00  0.0000E+00  0.0000E+00  0.0000E+00  0.0000E+00  0.0000E+00  0.0000E+00  0.0000E+00  0.0000E+00  0.0000E+00  0.0000E+00  0.0000E+00  0.0000E+00  0.0000E+00
    -21.105  0.0000E+00  0.0000E+00  0.0000E+00  0.0000E+00  0.0000E+00  0.0000E+00  0.0000E+00  0.0000E+00  0.0000E+00  0.0000E+00  0.0000E+00  0.0000E+00  0.0000E+00  0.0000E+00  0.0000E+00  0.0000E+00  0.0000E+00  0.0000E+00
    -20.954  0.0000E+00  0.0000E+00  0.0000E+00  0.0000E+00  0.0000E+00  0.0000E+00  0.0000E+00  0.0000E+00  0.0000E+00  0.0000E+00  0.0000E+00  0.0000E+00  0.0000E+00  0.0000E+00  0.0000E+00  0.0000E+00  0.0000E+00  0.0000E+00
    -20.803  0.0000E+00  0.0000E+00  0.0000E+00  0.0000E+00  0.0000E+00  0.0000E+00  0.0000E+00  0.0000E+00  0.0000E+00  0.0000E+00  0.0000E+00  0.0000E+00  0.0000E+00  0.0000E+00  0.0000E+00  0.0000E+00  0.0000E+00  0.0000E+00
    -20.652  0.0000E+00  0.0000E+00  0.0000E+00  0.0000E+00  0.0000E+00  0.0000E+00  0.0000E+00  0.0000E+00  0.0000E+00  0.0000E+00  0.0000E+00  0.0000E+00  0.0000E+00  0.0000E+00  0.0000E+00  0.0000E+00  0.0000E+00  0.0000E+00
    -20.501  0.0000E+00  0.0000E+00  0.0000E+00  0.0000E+00  0.0000E+00  0.0000E+00  0.0000E+00  0.0000E+00  0.0000E+00  0.0000E+00  0.0000E+00  0.0000E+00  0.0000E+00  0.0000E+00  0.0000E+00  0.0000E+00  0.0000E+00  0.0000E+00
    -20.350  0.0000E+00  0.0000E+00  0.0000E+00  0.0000E+00  0.0000E+00  0.0000E+00  0.0000E+00  0.0000E+00  0.0000E+00  0.0000E+00  0.0000E+00  0.0000E+00  0.0000E+00  0.0000E+00  0.0000E+00  0.0000E+00  0.0000E+00  0.0000E+00
    -20.200  0.0000E+00  0.0000E+00  0.0000E+00  0.0000E+00  0.0000E+00  0.0000E+00  0.0000E+00  0.0000E+00  0.0000E+00  0.0000E+00  0.0000E+00  0.0000E+00  0.0000E+00  0.0000E+00  0.0000E+00  0.0000E+00  0.0000E+00  0.0000E+00
    -20.049  0.0000E+00  0.0000E+00  0.0000E+00  0.0000E+00  0.0000E+00  0.0000E+00  0.0000E+00  0.0000E+00  0.0000E+00  0.0000E+00  0.0000E+00  0.0000E+00  0.0000E+00  0.0000E+00  0.0000E+00  0.0000E+00  0.0000E+00  0.0000E+00
    -19.898  0.0000E+00  0.0000E+00  0.0000E+00  0.0000E+00  0.0000E+00  0.0000E+00  0.0000E+00  0.0000E+00  0.0000E+00  0.0000E+00  0.0000E+00  0.0000E+00  0.0000E+00  0.0000E+00  0.0000E+00  0.0000E+00  0.0000E+00  0.0000E+00
    -19.747  0.0000E+00  0.0000E+00  0.0000E+00  0.0000E+00  0.0000E+00  0.0000E+00  0.0000E+00  0.0000E+00  0.0000E+00  0.0000E+00  0.0000E+00  0.0000E+00  0.0000E+00  0.0000E+00  0.0000E+00  0.0000E+00  0.0000E+00  0.0000E+00
    -19.596  0.0000E+00  0.0000E+00  0.0000E+00  0.0000E+00  0.0000E+00  0.0000E+00  0.0000E+00  0.0000E+00  0.0000E+00  0.0000E+00  0.0000E+00  0.0000E+00  0.0000E+00  0.0000E+00  0.0000E+00  0.0000E+00  0.0000E+00  0.0000E+00
    -19.445  0.0000E+00  0.0000E+00  0.0000E+00  0.0000E+00  0.0000E+00  0.0000E+00  0.0000E+00  0.0000E+00  0.0000E+00  0.0000E+00  0.0000E+00  0.0000E+00  0.0000E+00  0.0000E+00  0.0000E+00  0.0000E+00  0.0000E+00  0.0000E+00
    -19.294  0.0000E+00  0.0000E+00  0.0000E+00  0.0000E+00  0.0000E+00  0.0000E+00  0.0000E+00  0.0000E+00  0.0000E+00  0.0000E+00  0.0000E+00  0.0000E+00  0.0000E+00  0.0000E+00  0.0000E+00  0.0000E+00  0.0000E+00  0.0000E+00
    -19.143  0.0000E+00  0.0000E+00  0.0000E+00  0.0000E+00  0.0000E+00  0.0000E+00  0.0000E+00  0.0000E+00  0.0000E+00  0.0000E+00  0.0000E+00  0.0000E+00  0.0000E+00  0.0000E+00  0.0000E+00  0.0000E+00  0.0000E+00  0.0000E+00
    -18.992  0.0000E+00  0.0000E+00  0.0000E+00  0.0000E+00  0.0000E+00  0.0000E+00  0.0000E+00  0.0000E+00  0.0000E+00  0.0000E+00  0.0000E+00  0.0000E+00  0.0000E+00  0.0000E+00  0.0000E+00  0.0000E+00  0.0000E+00  0.0000E+00
    -18.841  0.0000E+00  0.0000E+00  0.0000E+00  0.0000E+00  0.0000E+00  0.0000E+00  0.0000E+00  0.0000E+00  0.0000E+00  0.0000E+00  0.0000E+00  0.0000E+00  0.0000E+00  0.0000E+00  0.0000E+00  0.0000E+00  0.0000E+00  0.0000E+00
    -18.690  0.0000E+00  0.0000E+00  0.0000E+00  0.0000E+00  0.0000E+00  0.0000E+00  0.0000E+00  0.0000E+00  0.0000E+00  0.0000E+00  0.0000E+00  0.0000E+00  0.0000E+00  0.0000E+00  0.0000E+00  0.0000E+00  0.0000E+00  0.0000E+00
    -18.540  0.0000E+00  0.0000E+00  0.0000E+00  0.0000E+00  0.0000E+00  0.0000E+00  0.0000E+00  0.0000E+00  0.0000E+00  0.0000E+00  0.0000E+00  0.0000E+00  0.0000E+00  0.0000E+00  0.0000E+00  0.0000E+00  0.0000E+00  0.0000E+00
    -18.389  0.0000E+00  0.0000E+00  0.0000E+00  0.0000E+00  0.0000E+00  0.0000E+00  0.0000E+00  0.0000E+00  0.0000E+00  0.0000E+00  0.0000E+00  0.0000E+00  0.0000E+00  0.0000E+00  0.0000E+00  0.0000E+00  0.0000E+00  0.0000E+00
    -18.238  0.0000E+00  0.0000E+00  0.0000E+00  0.0000E+00  0.0000E+00  0.0000E+00  0.0000E+00  0.0000E+00  0.0000E+00  0.0000E+00  0.0000E+00  0.0000E+00  0.0000E+00  0.0000E+00  0.0000E+00  0.0000E+00  0.0000E+00  0.0000E+00
    -18.087  0.0000E+00  0.0000E+00  0.0000E+00  0.0000E+00  0.0000E+00  0.0000E+00  0.0000E+00  0.0000E+00  0.0000E+00  0.0000E+00  0.0000E+00  0.0000E+00  0.0000E+00  0.0000E+00  0.0000E+00  0.0000E+00  0.0000E+00  0.0000E+00
    -17.936  0.0000E+00  0.0000E+00  0.0000E+00  0.0000E+00  0.0000E+00  0.0000E+00  0.0000E+00  0.0000E+00  0.0000E+00  0.0000E+00  0.0000E+00  0.0000E+00  0.0000E+00  0.0000E+00  0.0000E+00  0.0000E+00  0.0000E+00  0.0000E+00
    -17.785  0.0000E+00  0.0000E+00  0.0000E+00  0.0000E+00  0.0000E+00  0.0000E+00  0.0000E+00  0.0000E+00  0.0000E+00  0.0000E+00  0.0000E+00  0.0000E+00  0.0000E+00  0.0000E+00  0.0000E+00  0.0000E+00  0.0000E+00  0.0000E+00
    -17.634  0.0000E+00  0.0000E+00  0.0000E+00  0.0000E+00  0.0000E+00  0.0000E+00  0.0000E+00  0.0000E+00  0.0000E+00  0.0000E+00  0.0000E+00  0.0000E+00  0.0000E+00  0.0000E+00  0.0000E+00  0.0000E+00  0.0000E+00  0.0000E+00
    -17.483  0.0000E+00  0.0000E+00  0.0000E+00  0.0000E+00  0.0000E+00  0.0000E+00  0.0000E+00  0.0000E+00  0.0000E+00  0.0000E+00  0.0000E+00  0.0000E+00  0.0000E+00  0.0000E+00  0.0000E+00  0.0000E+00  0.0000E+00  0.0000E+00
    -17.332  0.0000E+00  0.0000E+00  0.0000E+00  0.0000E+00  0.0000E+00  0.0000E+00  0.0000E+00  0.0000E+00  0.0000E+00  0.0000E+00  0.0000E+00  0.0000E+00  0.0000E+00  0.0000E+00  0.0000E+00  0.0000E+00  0.0000E+00  0.0000E+00
    -17.181  0.0000E+00  0.0000E+00  0.0000E+00  0.0000E+00  0.0000E+00  0.0000E+00  0.0000E+00  0.0000E+00  0.0000E+00  0.0000E+00  0.0000E+00  0.0000E+00  0.0000E+00  0.0000E+00  0.0000E+00  0.0000E+00  0.0000E+00  0.0000E+00
    -17.031  0.0000E+00  0.0000E+00  0.0000E+00  0.0000E+00  0.0000E+00  0.0000E+00  0.0000E+00  0.0000E+00  0.0000E+00  0.0000E+00  0.0000E+00  0.0000E+00  0.0000E+00  0.0000E+00  0.0000E+00  0.0000E+00  0.0000E+00  0.0000E+00
    -16.880  0.0000E+00  0.0000E+00  0.0000E+00  0.0000E+00  0.0000E+00  0.0000E+00  0.0000E+00  0.0000E+00  0.0000E+00  0.0000E+00  0.0000E+00  0.0000E+00  0.0000E+00  0.0000E+00  0.0000E+00  0.0000E+00  0.0000E+00  0.0000E+00
    -16.729  0.0000E+00  0.0000E+00  0.0000E+00  0.0000E+00  0.0000E+00  0.0000E+00  0.0000E+00  0.0000E+00  0.0000E+00  0.0000E+00  0.0000E+00  0.0000E+00  0.0000E+00  0.0000E+00  0.0000E+00  0.0000E+00  0.0000E+00  0.0000E+00
    -16.578  0.0000E+00  0.0000E+00  0.0000E+00  0.0000E+00  0.0000E+00  0.0000E+00  0.0000E+00  0.0000E+00  0.0000E+00  0.0000E+00  0.0000E+00  0.0000E+00  0.0000E+00  0.0000E+00  0.0000E+00  0.0000E+00  0.0000E+00  0.0000E+00
    -16.427  0.0000E+00  0.0000E+00  0.0000E+00  0.0000E+00  0.0000E+00  0.0000E+00  0.0000E+00  0.0000E+00  0.0000E+00  0.0000E+00  0.0000E+00  0.0000E+00  0.0000E+00  0.0000E+00  0.0000E+00  0.0000E+00  0.0000E+00  0.0000E+00
    -16.276  0.0000E+00  0.0000E+00  0.0000E+00  0.0000E+00  0.0000E+00  0.0000E+00  0.0000E+00  0.0000E+00  0.0000E+00  0.0000E+00  0.0000E+00  0.0000E+00  0.0000E+00  0.0000E+00  0.0000E+00  0.0000E+00  0.0000E+00  0.0000E+00
    -16.125  0.0000E+00  0.0000E+00  0.0000E+00  0.0000E+00  0.0000E+00  0.0000E+00  0.0000E+00  0.0000E+00  0.0000E+00  0.0000E+00  0.0000E+00  0.0000E+00  0.0000E+00  0.0000E+00  0.0000E+00  0.0000E+00  0.0000E+00  0.0000E+00