    2    2    1    2
  0.2254249E+02  0.3994990E-09  0.3994990E-09  0.3994989E-09  0.5000000E-15
  1.000000000000000E-004
  CAR 
 unknown system                          
     14     20     16
 
  0.0000000E+00  0.0000000E+00  0.0000000E+00  0.2915452E-02
    1      -21.585328    -21.586310   1.000000   1.000000
    2      -21.585307    -21.586272   1.000000   1.000000
    3      -21.585306    -21.586270   1.000000   1.000000
    4      -13.413843    -13.413383   1.000000   1.000000
    5       -0.761660     -0.761022   1.000000   1.000000
    6       -0.761659     -0.761014   1.000000   1.000000
    7       -0.761659     -0.761014   1.000000   1.000000
    8        4.316486      4.317029   0.000000   0.000000
    9       10.358566     10.359732   0.000000   0.000000
   10       10.358568     10.359734   0.000000   0.000000
   11       10.358592     10.359744   0.000000   0.000000
   12       12.527327     12.529238   0.000000   0.000000
   13       12.527327     12.529238   0.000000   0.000000
   14       14.093097     14.089631   0.000000   0.000000
   15       16.293531     16.295640   0.000000   0.000000
   16       16.293603     16.295687   0.000000   0.000000
 
  0.1428571E+00 -0.1347424E-17 -0.2584939E-25  0.2332362E-01
    1      -21.589769    -21.590732   1.000000   1.000000
    2      -21.584938    -21.585916   1.000000   1.000000
    3      -21.584919    -21.585882   1.000000   1.000000
    4      -13.354199    -13.353746   1.000000   1.000000
    5       -1.220311     -1.219636   1.000000   1.000000
    6       -0.811028     -0.810384   1.000000   1.000000
    7       -0.811028     -0.810377   1.000000   1.000000
    8        4.941914      4.942445   0.000000   0.000000
    9        9.709492      9.709902   0.000000   0.000000
   10       10.598610     10.599823   0.000000   0.000000
   11       10.598631     10.599844   0.000000   0.000000
   12       12.232999     12.234964   0.000000   0.000000
   13       12.233012     12.234965   0.000000   0.000000
   14       15.113573     15.112031   0.000000   0.000000
   15       16.264471     16.264698   0.000000   0.000000
   16       17.322867     17.324844   0.000000   0.000000
 
  0.2857143E+00 -0.1657264E-16  0.5169879E-25  0.2332362E-01
    1      -21.601999    -21.602958   1.000000   1.000000
    2      -21.585961    -21.586938   1.000000   1.000000
    3      -21.585941    -21.586904   1.000000   1.000000
    4      -13.215679    -13.215241   1.000000   1.000000
    5       -2.045287     -2.044566   1.000000   1.000000
    6       -0.922607     -0.921956   1.000000   1.000000
    7       -0.922606     -0.921948   1.000000   1.000000
    8        6.027320      6.027765   0.000000   0.000000
    9        9.216375      9.216434   0.000000   0.000000
   10       10.566345     10.567969   0.000000   0.000000
   11       10.566367     10.568005   0.000000   0.000000
   12       12.780679     12.782256   0.000000   0.000000
   13       12.780701     12.782266   0.000000   0.000000
   14       14.630337     14.630234   0.000000   0.000000
   15       18.980750     18.978779   0.000000   0.000000
   16       19.543996     19.543987   0.000000   0.000000
 
  0.4285714E+00  0.2896623E-17  0.5169879E-25  0.2332362E-01
    1      -21.611650    -21.612605   1.000000   1.000000
    2      -21.586569    -21.587546   1.000000   1.000000
    3      -21.586549    -21.587512   1.000000   1.000000
    4      -13.099598    -13.099173   1.000000   1.000000
    5       -2.594192     -2.593439   1.000000   1.000000
    6       -1.007728     -1.007072   1.000000   1.000000
    7       -1.007727     -1.007064   1.000000   1.000000
    8        6.470966      6.471165   0.000000   0.000000
    9        9.672449      9.672756   0.000000   0.000000
   10       10.259880     10.261703   0.000000   0.000000
   11       10.259905     10.261741   0.000000   0.000000
   12       14.208697     14.208169   0.000000   0.000000
   13       14.617100     14.618281   0.000000   0.000000
   14       14.617114     14.618291   0.000000   0.000000
   15       17.162078     17.161987   0.000000   0.000000
   16       17.419083     17.420657   0.000000   0.000000
 
  0.1428571E+00  0.1428571E+00 -0.5169879E-25  0.1749271E-01
    1      -21.589350    -21.590317   1.000000   1.000000
    2      -21.586005    -21.586979   1.000000   1.000000
    3      -21.585990    -21.586953   1.000000   1.000000
    4      -13.336331    -13.335879   1.000000   1.000000
    5       -1.242411     -1.241761   1.000000   1.000000
    6       -0.882534     -0.881873   1.000000   1.000000
    7       -0.882534     -0.881868   1.000000   1.000000
    8        5.145846      5.146391   0.000000   0.000000
    9        9.360950      9.361227   0.000000   0.000000
   10       10.834783     10.835979   0.000000   0.000000
   11       10.834802     10.835989   0.000000   0.000000
   12       11.322716     11.324668   0.000000   0.000000
   13       12.818178     12.820082   0.000000   0.000000
   14       15.826012     15.823430   0.000000   0.000000
   15       16.835794     16.837827   0.000000   0.000000
   16       16.835855     16.837882   0.000000   0.000000
 
  0.2857143E+00  0.1428571E+00  0.0000000E+00  0.6997085E-01
    1      -21.598045    -21.599007   1.000000   1.000000
    2      -21.587436    -21.588410   1.000000   1.000000
    3      -21.586793    -21.587757   1.000000   1.000000
    4      -13.228611    -13.228170   1.000000   1.000000
    5       -1.834727     -1.834040   1.000000   1.000000
    6       -1.007447     -1.006784   1.000000   1.000000
    7       -1.003404     -1.002730   1.000000   1.000000
    8        6.124295      6.124852   0.000000   0.000000
    9        8.800691      8.800635   0.000000   0.000000
   10       10.235923     10.237578   0.000000   0.000000
   11       11.088015     11.089446   0.000000   0.000000
   12       11.838612     11.840002   0.000000   0.000000
   13       13.314599     13.316308   0.000000   0.000000
   14       16.084768     16.085092   0.000000   0.000000
   15       18.182963     18.184680   0.000000   0.000000
   16       18.372134     18.369688   0.000000   0.000000
 
  0.4285714E+00  0.1428571E+00  0.0000000E+00  0.6997085E-01
    1      -21.607330    -21.608287   1.000000   1.000000
    2      -21.588080    -21.589045   1.000000   1.000000
    3      -21.587680    -21.588653   1.000000   1.000000
    4      -13.108041    -13.107612   1.000000   1.000000
    5       -2.383703     -2.382971   1.000000   1.000000
    6       -1.180333     -1.179674   1.000000   1.000000
    7       -1.081348     -1.080672   1.000000   1.000000
    8        6.864809      6.865129   0.000000   0.000000
    9        9.056496      9.056896   0.000000   0.000000
   10        9.666655      9.667849   0.000000   0.000000
   11       10.783527     10.785293   0.000000   0.000000
   12       13.246088     13.247534   0.000000   0.000000
   13       14.920809     14.922034   0.000000   0.000000
   14       15.656170     15.656137   0.000000   0.000000
   15       16.926192     16.926483   0.000000   0.000000
   16       17.388642     17.390058   0.000000   0.000000
 
 -0.4285714E+00  0.1428571E+00 -0.5169879E-25  0.6997085E-01
    1      -21.610275    -21.611230   1.000000   1.000000
    2      -21.589675    -21.590641   1.000000   1.000000
    3      -21.587374    -21.588347   1.000000   1.000000
    4      -13.068550    -13.068126   1.000000   1.000000
    5       -2.537193     -2.536444   1.000000   1.000000
    6       -1.288931     -1.288266   1.000000   1.000000
    7       -1.064815     -1.064148   1.000000   1.000000
    8        7.009307      7.009449   0.000000   0.000000
    9        9.277152      9.278572   0.000000   0.000000
   10        9.779408      9.779660   0.000000   0.000000
   11       10.577057     10.578956   0.000000   0.000000
   12       14.484271     14.485297   0.000000   0.000000
   13       14.505969     14.507096   0.000000   0.000000
   14       15.443028     15.443418   0.000000   0.000000
   15       16.285913     16.286147   0.000000   0.000000
   16       17.645252     17.646581   0.000000   0.000000
 
 -0.2857143E+00  0.1428571E+00  0.0000000E+00  0.6997085E-01
    1      -21.604853    -21.605810   1.000000   1.000000
    2      -21.589553    -21.590519   1.000000   1.000000
    3      -21.586076    -21.587051   1.000000   1.000000
    4      -13.142748    -13.142316   1.000000   1.000000
    5       -2.227203     -2.226471   1.000000   1.000000
    6       -1.242390     -1.241717   1.000000   1.000000
    7       -0.963325     -0.962674   1.000000   1.000000
    8        6.757679      6.758054   0.000000   0.000000
    9        9.058869      9.058846   0.000000   0.000000
   10        9.814531      9.816004   0.000000   0.000000
   11       10.753846     10.755770   0.000000   0.000000
   12       12.452363     12.453628   0.000000   0.000000
   13       14.561116     14.562564   0.000000   0.000000
   14       15.739710     15.739934   0.000000   0.000000
   15       16.761571     16.762178   0.000000   0.000000
   16       18.813410     18.813840   0.000000   0.000000
 
 -0.1428571E+00  0.1428571E+00  0.3753114E-25  0.3498542E-01
    1      -21.595686    -21.596645   1.000000   1.000000
    2      -21.587597    -21.588565   1.000000   1.000000
    3      -21.585120    -21.586095   1.000000   1.000000
    4      -13.270072    -13.269627   1.000000   1.000000
    5       -1.655499     -1.654805   1.000000   1.000000
    6       -1.031568     -1.030897   1.000000   1.000000
    7       -0.848929     -0.848288   1.000000   1.000000
    8        5.755568      5.756090   0.000000   0.000000
    9        9.159321      9.159336   0.000000   0.000000
   10       10.474301     10.475718   0.000000   0.000000
   11       11.063565     11.064687   0.000000   0.000000
   12       11.405454     11.407569   0.000000   0.000000
   13       13.005014     13.006616   0.000000   0.000000
   14       16.215214     16.214921   0.000000   0.000000
   15       16.550874     16.551638   0.000000   0.000000
   16       18.140628     18.140547   0.000000   0.000000
 
  0.2857143E+00  0.2857143E+00 -0.1033976E-24  0.1749271E-01
    1      -21.598991    -21.599956   1.000000   1.000000
    2      -21.589589    -21.590562   1.000000   1.000000
    3      -21.589573    -21.590535   1.000000   1.000000
    4      -13.172088    -13.171650   1.000000   1.000000
    5       -1.975637     -1.974990   1.000000   1.000000
    6       -1.137742     -1.137045   1.000000   1.000000
    7       -1.137741     -1.137040   1.000000   1.000000
    8        6.592505      6.593356   0.000000   0.000000
    9        8.097745      8.097542   0.000000   0.000000
   10        9.834863      9.836214   0.000000   0.000000
   11       12.045601     12.046885   0.000000   0.000000
   12       12.045624     12.046898   0.000000   0.000000
   13       13.575269     13.577190   0.000000   0.000000
   14       18.163060     18.164325   0.000000   0.000000
   15       18.163104     18.164354   0.000000   0.000000
   16       19.221617     19.213564   0.000000   0.000000
 
  0.4285714E+00  0.2857143E+00  0.1033976E-24  0.6997085E-01
    1      -21.602673    -21.603635   1.000000   1.000000
    2      -21.591796    -21.592758   1.000000   1.000000
    3      -21.590302    -21.591275   1.000000   1.000000
    4      -13.086909    -13.086477   1.000000   1.000000
    5       -2.235327     -2.234664   1.000000   1.000000
    6       -1.369187     -1.368483   1.000000   1.000000
    7       -1.223256     -1.222553   1.000000   1.000000
    8        7.143576      7.144685   0.000000   0.000000
    9        7.982617      7.982475   0.000000   0.000000
   10        9.545473      9.546181   0.000000   0.000000
   11       12.051946     12.053645   0.000000   0.000000
   12       13.000771     13.002242   0.000000   0.000000
   13       14.864098     14.865589   0.000000   0.000000
   14       16.776539     16.776913   0.000000   0.000000
   15       17.352990     17.353793   0.000000   0.000000
   16       18.509410     18.504142   0.000000   0.000000
 
 -0.4285714E+00  0.2857143E+00 -0.5169879E-25  0.6997085E-01
    1      -21.604504    -21.605464   1.000000   1.000000
    2      -21.596137    -21.597100   1.000000   1.000000
    3      -21.589670    -21.590642   1.000000   1.000000
    4      -13.037673    -13.037247   1.000000   1.000000
    5       -2.251527     -2.250825   1.000000   1.000000
    6       -1.734520     -1.733832   1.000000   1.000000
    7       -1.203605     -1.202912   1.000000   1.000000
    8        7.579171      7.579861   0.000000   0.000000
    9        8.478187      8.478937   0.000000   0.000000
   10        9.498734      9.498676   0.000000   0.000000
   11       11.573928     11.575922   0.000000   0.000000
   12       13.000089     13.001520   0.000000   0.000000
   13       14.815924     14.816607   0.000000   0.000000
   14       16.605136     16.605884   0.000000   0.000000
   15       17.416417     17.418152   0.000000   0.000000
   16       18.465943     18.445426   0.000000   0.000000
 
 -0.2857143E+00  0.2857143E+00  0.1591319E-25  0.3498542E-01
    1      -21.604275    -21.605231   1.000000   1.000000
    2      -21.595827    -21.596793   1.000000   1.000000
    3      -21.587443    -21.588416   1.000000   1.000000
    4      -13.063085    -13.062659   1.000000   1.000000
    5       -2.204986     -2.204243   1.000000   1.000000
    6       -1.732198     -1.731532   1.000000   1.000000
    7       -1.090038     -1.089366   1.000000   1.000000
    8        7.802576      7.802839   0.000000   0.000000
    9        8.809316      8.810819   0.000000   0.000000
   10        9.075848      9.075602   0.000000   0.000000
   11       11.200332     11.202495   0.000000   0.000000
   12       13.075390     13.076281   0.000000   0.000000
   13       13.936494     13.937612   0.000000   0.000000
   14       16.674858     16.676024   0.000000   0.000000
   15       17.867858     17.868673   0.000000   0.000000
   16       18.547226     18.547220   0.000000   0.000000
 
  0.4285714E+00  0.4285714E+00  0.1033976E-24  0.1749271E-01
    1      -21.603702    -21.604665   1.000000   1.000000
    2      -21.592003    -21.592975   1.000000   1.000000
    3      -21.591988    -21.592949   1.000000   1.000000
    4      -13.051769    -13.051338   1.000000   1.000000
    5       -2.359962     -2.359335   1.000000   1.000000
    6       -1.323534     -1.322813   1.000000   1.000000
    7       -1.323533     -1.322808   1.000000   1.000000
    8        6.825603      6.827237   0.000000   0.000000
    9        7.411561      7.411206   0.000000   0.000000
   10       10.254903     10.255068   0.000000   0.000000
   11       13.567336     13.569017   0.000000   0.000000
   12       13.567371     13.569036   0.000000   0.000000
   13       14.407642     14.409582   0.000000   0.000000
   14       16.788522     16.789559   0.000000   0.000000
   15       16.816527     16.816704   0.000000   0.000000
   16       16.816538     16.816706   0.000000   0.000000
 
 -0.4285714E+00  0.4285714E+00  0.5723423E-25  0.3498542E-01
    1      -21.603380    -21.604344   1.000000   1.000000
    2      -21.595430    -21.596390   1.000000   1.000000
    3      -21.591780    -21.592752   1.000000   1.000000
    4      -13.029853    -13.029424   1.000000   1.000000
    5       -2.320245     -2.319617   1.000000   1.000000
    6       -1.559374     -1.558639   1.000000   1.000000
    7       -1.315320     -1.314604   1.000000   1.000000
    8        7.061365      7.062890   0.000000   0.000000
    9        7.668765      7.668572   0.000000   0.000000
   10       10.224782     10.224698   0.000000   0.000000
   11       12.825696     12.827724   0.000000   0.000000
   12       13.272005     13.273735   0.000000   0.000000
   13       15.727434     15.727640   0.000000   0.000000
   14       15.975783     15.977613   0.000000   0.000000
   15       16.684314     16.684353   0.000000   0.000000
   16       16.986633     16.987966   0.000000   0.000000
 
  0.4285714E+00  0.2857143E+00  0.1428571E+00  0.6997085E-01
    1      -21.602141    -21.603108   1.000000   1.000000
    2      -21.591393    -21.592360   1.000000   1.000000
    3      -21.587598    -21.588560   1.000000   1.000000
    4      -13.133522    -13.133088   1.000000   1.000000
    5       -2.119459     -2.118769   1.000000   1.000000
    6       -1.336797     -1.336110   1.000000   1.000000
    7       -1.076248     -1.075571   1.000000   1.000000
    8        7.067337      7.067998   0.000000   0.000000
    9        8.485814      8.485589   0.000000   0.000000
   10        9.430849      9.432288   0.000000   0.000000
   11       11.479123     11.481012   0.000000   0.000000
   12       12.235888     12.237042   0.000000   0.000000
   13       14.654645     14.656140   0.000000   0.000000
   14       16.799031     16.799592   0.000000   0.000000
   15       17.620247     17.621062   0.000000   0.000000
   16       17.817209     17.817683   0.000000   0.000000
 
 -0.4285714E+00  0.2857143E+00  0.1428571E+00  0.1399417E+00
    1      -21.605680    -21.606640   1.000000   1.000000
    2      -21.593825    -21.594797   1.000000   1.000000
    3      -21.589271    -21.590234   1.000000   1.000000
    4      -13.055209    -13.054783   1.000000   1.000000
    5       -2.298233     -2.297512   1.000000   1.000000
    6       -1.579859     -1.579197   1.000000   1.000000
    7       -1.193871     -1.193177   1.000000   1.000000
    8        7.736773      7.737058   0.000000   0.000000
    9        8.665453      8.666796   0.000000   0.000000
   10        9.135612      9.135597   0.000000   0.000000
   11       11.177280     11.179164   0.000000   0.000000
   12       13.373168     13.374318   0.000000   0.000000
   13       14.757695     14.758857   0.000000   0.000000
   14       16.094251     16.095203   0.000000   0.000000
   15       17.569470     17.569719   0.000000   0.000000
   16       18.004380     18.004910   0.000000   0.000000
 
 -0.4285714E+00  0.4285714E+00  0.1428571E+00  0.6997085E-01
    1      -21.602698    -21.603665   1.000000   1.000000
    2      -21.594160    -21.595126   1.000000   1.000000
    3      -21.592624    -21.593587   1.000000   1.000000
    4      -13.037844    -13.037416   1.000000   1.000000
    5       -2.242247     -2.241598   1.000000   1.000000
    6       -1.556776     -1.556078   1.000000   1.000000
    7       -1.386848     -1.386113   1.000000   1.000000
    8        7.484723      7.486290   0.000000   0.000000
    9        8.000205      7.999877   0.000000   0.000000
   10        9.593331      9.593511   0.000000   0.000000
   11       11.808134     11.809957   0.000000   0.000000
   12       13.837909     13.839430   0.000000   0.000000
   13       15.200852     15.202140   0.000000   0.000000
   14       15.967942     15.968930   0.000000   0.000000
   15       16.874440     16.874628   0.000000   0.000000
   16       18.181034     18.182466   0.000000   0.000000
 
 -0.2857143E+00  0.4285714E+00  0.1428571E+00  0.6997085E-01
    1      -21.599526    -21.600484   1.000000   1.000000
    2      -21.599026    -21.599990   1.000000   1.000000
    3      -21.591747    -21.592719   1.000000   1.000000
    4      -13.023766    -13.023340   1.000000   1.000000
    5       -2.008922     -2.008266   1.000000   1.000000
    6       -1.945625     -1.944911   1.000000   1.000000
    7       -1.368536     -1.367815   1.000000   1.000000
    8        7.993984      7.995333   0.000000   0.000000
    9        8.505591      8.505673   0.000000   0.000000
   10        9.272122      9.271879   0.000000   0.000000
   11       10.973558     10.975463   0.000000   0.000000
   12       13.866316     13.867923   0.000000   0.000000
   13       14.640343     14.641301   0.000000   0.000000
   14       16.434706     16.436203   0.000000   0.000000
   15       16.968783     16.969035   0.000000   0.000000
   16       18.621631     18.623115   0.000000   0.000000
