       N       E                     dE             d eps       ncg     rms          rms(c)
DAV:   1     0.282875958784E+02    0.28288E+02   -0.60798E+03  1280   0.566E+02
DAV:   2    -0.571729236641E+01   -0.34005E+02   -0.33947E+02  1712   0.922E+01
DAV:   3    -0.636555349134E+01   -0.64826E+00   -0.64826E+00  1472   0.163E+01
DAV:   4    -0.636808520644E+01   -0.25317E-02   -0.25317E-02  2112   0.947E-01
DAV:   5    -0.636808676721E+01   -0.15608E-05   -0.15608E-05  1520   0.151E-02    0.831E+00
RMM:   6    -0.669794364881E+01   -0.32986E+00   -0.40986E-01  1514   0.479E+00    0.323E+00
RMM:   7    -0.676274333809E+01   -0.64800E-01   -0.78911E-02  1470   0.214E+00    0.839E-01
RMM:   8    -0.676790490211E+01   -0.51616E-02   -0.23550E-02  1617   0.830E-01    0.367E-01
RMM:   9    -0.677031633204E+01   -0.24114E-02   -0.41389E-03  1587   0.447E-01    0.208E-01
RMM:  10    -0.677184726077E+01   -0.15309E-02   -0.15009E-03  1430   0.252E-01    0.474E-02
RMM:  11    -0.677196615900E+01   -0.11890E-03   -0.18766E-04  1381   0.109E-01    0.199E-02
RMM:  12    -0.677199822606E+01   -0.32067E-04   -0.49031E-05  1215   0.482E-02
   1 F= -.67719982E+01 E0= -.67719982E+01  d E =0.000000E+00  mag=    -0.0001
