 vasp.5.4.1 05Feb16 (build Oct 18 2017 00:28:00) complex                        
  
 executed on        Wheeler-clean date 2018.07.23  14:50:36
 running on   16 total cores
 distrk:  each k-point on   16 cores,    1 groups
 distr:  one band on NCORES_PER_BAND=   1 cores,   16 groups


--------------------------------------------------------------------------------------------------------


 INCAR:
 POTCAR:    PAW_PBE Na_pv 19Sep2006               
 POTCAR:    PAW_PBE Cl 17Jan2003                  

 ----------------------------------------------------------------------------- 
|                                                                             |
|           W    W    AA    RRRRR   N    N  II  N    N   GGGG   !!!           |
|           W    W   A  A   R    R  NN   N  II  NN   N  G    G  !!!           |
|           W    W  A    A  R    R  N N  N  II  N N  N  G       !!!           |
|           W WW W  AAAAAA  RRRRR   N  N N  II  N  N N  G  GGG   !            |
|           WW  WW  A    A  R   R   N   NN  II  N   NN  G    G                |
|           W    W  A    A  R    R  N    N  II  N    N   GGGG   !!!           |
|                                                                             |
|      For optimal performance we recommend to set                            |
|        NCORE= 4 - approx SQRT( number of cores)                             |
|      NCORE specifies how many cores store one orbital (NPAR=cpu/NCORE).     |
|      This setting can  greatly improve the performance of VASP for DFT.     |
|      The default, NPAR=number of cores might be grossly inefficient         |
|      on modern multi-core architectures or massively parallel machines.     |
|      Do your own testing !!!!                                               |
|      Unfortunately you need to use the default for GW and RPA calculations. |
|      (for HF NCORE is supported but not extensively tested yet)             |
|                                                                             |
 ----------------------------------------------------------------------------- 

 POTCAR:    PAW_PBE Na_pv 19Sep2006               
   VRHFIN =Na: p6s1                                                             
   LEXCH  = PE                                                                  
   EATOM  =   766.0439 eV,   56.3026 Ry                                         
                                                                                
   TITEL  = PAW_PBE Na_pv 19Sep2006                                             
   LULTRA =        F    use ultrasoft PP ?                                      
   IUNSCR =        1    unscreen: 0-lin 1-nonlin 2-no                           
   RPACOR =    1.800    partial core radius                                     
   POMASS =   22.990; ZVAL   =    7.000    mass and valenz                      
   RCORE  =    2.200    outmost cutoff radius                                   
   RWIGS  =    2.200; RWIGS  =    1.164    wigner-seitz radius (au A)           
   ENMAX  =  259.561; ENMIN  =  194.671 eV                                      
   ICORE  =        2    local potential                                         
   LCOR   =        T    correct aug charges                                     
   LPAW   =        T    paw PP                                                  
   EAUG   =  368.056                                                            
   DEXC   =     .000                                                            
   RMAX   =    2.862    core radius for proj-oper                               
   RAUG   =    1.300    factor for augmentation sphere                          
   RDEP   =    2.259    radius for radial grids                                 
   QCUT   =   -4.368; QGAM   =    8.735    optimization parameters              
                                                                                
   Description                                                                  
     l     E      TYP  RCUT    TYP  RCUT                                        
     1   .000     23  2.000                                                     
     1   .500     23  2.000                                                     
     0   .000     23  2.200                                                     
     0  2.500     23  2.200                                                     
     2  -.100     23  2.200                                                     
  local pseudopotential read in
  partial core-charges read in
  atomic valenz-charges read in
  non local Contribution for L=           1  read in
    real space projection operators read in
  non local Contribution for L=           1  read in
    real space projection operators read in
  non local Contribution for L=           0  read in
    real space projection operators read in
  non local Contribution for L=           0  read in
    real space projection operators read in
    PAW grid and wavefunctions read in
 
   number of l-projection  operators is LMAX  =           4
   number of lm-projection operators is LMMAX =           8
 
 POTCAR:    PAW_PBE Cl 17Jan2003                  
   VRHFIN =Cl: s2p5                                                             
   LEXCH  = PE                                                                  
   EATOM  =   409.7259 eV,   30.1140 Ry                                         
                                                                                
   TITEL  = PAW_PBE Cl 17Jan2003                                                
   LULTRA =        F    use ultrasoft PP ?                                      
   IUNSCR =        1    unscreen: 0-lin 1-nonlin 2-no                           
   RPACOR =    1.500    partial core radius                                     
   POMASS =   35.453; ZVAL   =    7.000    mass and valenz                      
   RCORE  =    1.900    outmost cutoff radius                                   
   RWIGS  =    2.100; RWIGS  =    1.111    wigner-seitz radius (au A)           
   ENMAX  =  280.000; ENMIN  =  196.854 eV                                      
   ICORE  =        2    local potential                                         
   LCOR   =        T    correct aug charges                                     
   LPAW   =        T    paw PP                                                  
   EAUG   =  356.192                                                            
   DEXC   =     .000                                                            
   RMAX   =    2.846    core radius for proj-oper                               
   RAUG   =    1.300    factor for augmentation sphere                          
   RDEP   =    2.020    radius for radial grids                                 
   QCUT   =   -4.392; QGAM   =    8.784    optimization parameters              
                                                                                
   Description                                                                  
     l     E      TYP  RCUT    TYP  RCUT                                        
     0   .000     23  1.900                                                     
     0   .000     23  1.900                                                     
     1   .000     23  1.900                                                     
     1   .000     23  1.900                                                     
     2   .000     23  1.900                                                     
  local pseudopotential read in
  partial core-charges read in
  atomic valenz-charges read in
  non local Contribution for L=           0  read in
    real space projection operators read in
  non local Contribution for L=           0  read in
    real space projection operators read in
  non local Contribution for L=           1  read in
    real space projection operators read in
  non local Contribution for L=           1  read in
    real space projection operators read in
    PAW grid and wavefunctions read in
 
   number of l-projection  operators is LMAX  =           4
   number of lm-projection operators is LMMAX =           8
 

 ----------------------------------------------------------------------------- 
|                                                                             |
|  ADVICE TO THIS USER RUNNING 'VASP/VAMP'   (HEAR YOUR MASTER'S VOICE ...):  |
|                                                                             |
|      You have a (more or less) 'small supercell' and for smaller cells      |
|      it is recommended  to use the reciprocal-space projection scheme!      |
|      The real space optimization is not  efficient for small cells and it   |
|      is also less accurate ...                                              |
|      Therefore set LREAL=.FALSE. in the  INCAR file                         |
|                                                                             |
 ----------------------------------------------------------------------------- 

 Optimization of the real space projectors (new method)

 maximal supplied QI-value         = 17.01
 optimisation between [QCUT,QGAM] = [  8.50, 17.01] = [ 20.25, 81.00] Ry 
 Optimized for a Real-space Cutoff    1.51 Angstroem

   l    n(q)    QCUT    max X(q) W(low)/X(q) W(high)/X(q)  e(spline) 
   1      7     8.504     4.977    0.43E-04    0.57E-04    0.31E-07
   1      7     8.504     7.312    0.24E-03    0.84E-03    0.31E-06
   0      8     8.504    36.258    0.41E-04    0.26E-04    0.80E-08
   0      8     8.504    45.649    0.18E-03    0.18E-03    0.46E-07
 Optimization of the real space projectors (new method)

 maximal supplied QI-value         = 19.84
 optimisation between [QCUT,QGAM] = [  8.53, 17.06] = [ 20.39, 81.54] Ry 
 Optimized for a Real-space Cutoff    1.70 Angstroem

   l    n(q)    QCUT    max X(q) W(low)/X(q) W(high)/X(q)  e(spline) 
   0      9     8.532     4.846    0.22E-04    0.56E-05    0.14E-07
   0      9     8.532    64.115    0.62E-04    0.30E-04    0.25E-06
   1      8     8.532     3.092    0.69E-05    0.43E-05    0.83E-07
   1      8     8.532    37.586    0.17E-03    0.31E-03    0.22E-06
  PAW_PBE Na_pv 19Sep2006               :
 energy of atom  1       EATOM= -766.0439
 kinetic energy error for atom=    0.0228 (will be added to EATOM!!)
  PAW_PBE Cl 17Jan2003                  :
 energy of atom  2       EATOM= -409.7259
 kinetic energy error for atom=    0.0240 (will be added to EATOM!!)
 
 
 POSCAR: Na1 Cl1                                 
  positions in direct lattice
  velocities in cartesian coordinates
 exchange correlation table for  LEXCH =        8
   RHO(1)=    0.500       N(1)  =     2000
   RHO(2)=  100.500       N(2)  =     4000

 VTST: version 3.1, (03/28/14)

 CHAIN: initializing optimizer
 
 OPT: Using VASP Conjugate-Gradient optimizer
 CHAIN: Read ICHAIN            0
 
 POSCAR: Na1 Cl1                                 
  positions in direct lattice
  velocities in cartesian coordinates
 


--------------------------------------------------------------------------------------------------------


 ion  position               nearest neighbor table
   1  0.000  0.000  0.000-
   2  0.500  0.500  0.500-
 
  LATTYP: Found a face centered cubic cell.
 ALAT       =     5.6497683081
  
  Lattice vectors:
  
 A1 = (   3.4597622302,  -0.0000000015,   1.9974952340)
 A2 = (   1.1532540753,   3.2618955288,   1.9974952340)
 A3 = (  -0.0000000043,  -0.0000000030,   3.9949894828)


Analysis of symmetry for initial positions (statically):
=====================================================================
 Subroutine PRICEL returns:
 Original cell was already a primitive cell.
 

 Routine SETGRP: Setting up the symmetry group for a 
 face centered cubic supercell.


 Subroutine GETGRP returns: Found 48 space group operations
 (whereof 48 operations were pure point group operations)
 out of a pool of 48 trial point group operations.


The static configuration has the point symmetry O_h .


Analysis of symmetry for dynamics (positions and initial velocities):
=====================================================================
 Subroutine PRICEL returns:
 Original cell was already a primitive cell.
 

 Routine SETGRP: Setting up the symmetry group for a 
 face centered cubic supercell.


 Subroutine GETGRP returns: Found 48 space group operations
 (whereof 48 operations were pure point group operations)
 out of a pool of 48 trial point group operations.


The dynamic configuration has the point symmetry O_h .


Analysis of structural, dynamic, and magnetic symmetry:
=====================================================================
 Subroutine PRICEL returns:
 Original cell was already a primitive cell.
 

 Routine SETGRP: Setting up the symmetry group for a 
 face centered cubic supercell.


 Subroutine GETGRP returns: Found 48 space group operations
 (whereof 48 operations were pure point group operations)
 out of a pool of 48 trial point group operations.


The magnetic configuration has the point symmetry O_h .


 Subroutine INISYM returns: Found 48 space group operations
 (whereof 48 operations are pure point group operations),
 and found     1 'primitive' translations

 
 
 KPOINTS: pymatgen 4.7.6+ generated KPOINTS with g

Automatic generation of k-mesh.
Space group operators:
 irot       det(A)        alpha          n_x          n_y          n_z        tau_x        tau_y        tau_z
    1     1.000000     0.000000     1.000000     0.000000     0.000000     0.000000     0.000000     0.000000
    2    -1.000000     0.000000     1.000000     0.000000     0.000000     0.000000     0.000000     0.000000
    3     1.000000   120.000000    -0.471404    -0.333333    -0.816497     0.000000     0.000000     0.000000
    4    -1.000000   120.000000    -0.471404    -0.333333    -0.816497     0.000000     0.000000     0.000000
    5     1.000000   120.000000     0.471405     0.333333     0.816497     0.000000     0.000000     0.000000
    6    -1.000000   120.000000     0.471405     0.333333     0.816497     0.000000     0.000000     0.000000
    7     1.000000    90.000000    -0.816497    -0.577350    -0.000000     0.000000     0.000000     0.000000
    8    -1.000000    90.000000    -0.816497    -0.577350    -0.000000     0.000000     0.000000     0.000000
    9     1.000000   180.000000     0.866025    -0.000000     0.500000     0.000000     0.000000     0.000000
   10    -1.000000   180.000000     0.866025    -0.000000     0.500000     0.000000     0.000000     0.000000
   11     1.000000    90.000000     0.408248    -0.577350     0.707107     0.000000     0.000000     0.000000
   12    -1.000000    90.000000     0.408248    -0.577350     0.707107     0.000000     0.000000     0.000000
   13     1.000000   180.000000     0.816497     0.577350     0.000000     0.000000     0.000000     0.000000
   14    -1.000000   180.000000     0.816497     0.577350     0.000000     0.000000     0.000000     0.000000
   15     1.000000   120.000000     0.942809    -0.333333     0.000000     0.000000     0.000000     0.000000
   16    -1.000000   120.000000     0.942809    -0.333333     0.000000     0.000000     0.000000     0.000000
   17     1.000000   120.000000    -0.000000    -1.000000    -0.000000     0.000000     0.000000     0.000000
   18    -1.000000   120.000000    -0.000000    -1.000000    -0.000000     0.000000     0.000000     0.000000
   19     1.000000    90.000000     0.816497     0.577350     0.000000     0.000000     0.000000     0.000000
   20    -1.000000    90.000000     0.816497     0.577350     0.000000     0.000000     0.000000     0.000000
   21     1.000000    90.000000     0.408248    -0.577350    -0.707107     0.000000     0.000000     0.000000
   22    -1.000000    90.000000     0.408248    -0.577350    -0.707107     0.000000     0.000000     0.000000
   23     1.000000   179.999999     0.288675     0.816497     0.500000     0.000000     0.000000     0.000000
   24    -1.000000   179.999999     0.288675     0.816497     0.500000     0.000000     0.000000     0.000000
   25     1.000000   120.000000    -0.000000     1.000000     0.000000     0.000000     0.000000     0.000000
   26    -1.000000   120.000000    -0.000000     1.000000     0.000000     0.000000     0.000000     0.000000
   27     1.000000   120.000000     0.471405     0.333333    -0.816497     0.000000     0.000000     0.000000
   28    -1.000000   120.000000     0.471405     0.333333    -0.816497     0.000000     0.000000     0.000000
   29     1.000000   180.000000    -0.408248     0.577350     0.707107     0.000000     0.000000     0.000000
   30    -1.000000   180.000000    -0.408248     0.577350     0.707107     0.000000     0.000000     0.000000
   31     1.000000    90.000000    -0.408248     0.577350    -0.707107     0.000000     0.000000     0.000000
   32    -1.000000    90.000000    -0.408248     0.577350    -0.707107     0.000000     0.000000     0.000000
   33     1.000000   180.000000    -0.000000    -0.000000     1.000000     0.000000     0.000000     0.000000
   34    -1.000000   180.000000    -0.000000    -0.000000     1.000000     0.000000     0.000000     0.000000
   35     1.000000    90.000000    -0.408248     0.577350     0.707107     0.000000     0.000000     0.000000
   36    -1.000000    90.000000    -0.408248     0.577350     0.707107     0.000000     0.000000     0.000000
   37     1.000000   120.000000    -0.942809     0.333333     0.000000     0.000000     0.000000     0.000000
   38    -1.000000   120.000000    -0.942809     0.333333     0.000000     0.000000     0.000000     0.000000
   39     1.000000   180.000000    -0.408248     0.577350    -0.707107     0.000000     0.000000     0.000000
   40    -1.000000   180.000000    -0.408248     0.577350    -0.707107     0.000000     0.000000     0.000000
   41     1.000000   120.000000    -0.471405    -0.333333     0.816496     0.000000     0.000000     0.000000
   42    -1.000000   120.000000    -0.471405    -0.333333     0.816496     0.000000     0.000000     0.000000
   43     1.000000   180.000000     0.288675     0.816497    -0.500000     0.000000     0.000000     0.000000
   44    -1.000000   180.000000     0.288675     0.816497    -0.500000     0.000000     0.000000     0.000000
   45     1.000000   180.000000    -0.577350     0.816497    -0.000000     0.000000     0.000000     0.000000
   46    -1.000000   180.000000    -0.577350     0.816497    -0.000000     0.000000     0.000000     0.000000
   47     1.000000   180.000000     0.866025     0.000000    -0.500000     0.000000     0.000000     0.000000
   48    -1.000000   180.000000     0.866025     0.000000    -0.500000     0.000000     0.000000     0.000000
 
 Subroutine IBZKPT returns following result:
 ===========================================
 
 Found     20 irreducible k-points:
 
 Following reciprocal coordinates:
            Coordinates               Weight
  0.000000  0.000000  0.000000      1.000000
  0.142857 -0.000000 -0.000000      8.000000
  0.285714 -0.000000  0.000000      8.000000
  0.428571  0.000000  0.000000      8.000000
  0.142857  0.142857 -0.000000      6.000000
  0.285714  0.142857  0.000000     24.000000
  0.428571  0.142857  0.000000     24.000000
 -0.428571  0.142857 -0.000000     24.000000
 -0.285714  0.142857  0.000000     24.000000
 -0.142857  0.142857  0.000000     12.000000
  0.285714  0.285714 -0.000000      6.000000
  0.428571  0.285714  0.000000     24.000000
 -0.428571  0.285714 -0.000000     24.000000
 -0.285714  0.285714  0.000000     12.000000
  0.428571  0.428571  0.000000      6.000000
 -0.428571  0.428571  0.000000     12.000000
  0.428571  0.285714  0.142857     24.000000
 -0.428571  0.285714  0.142857     48.000000
 -0.428571  0.428571  0.142857     24.000000
 -0.285714  0.428571  0.142857     24.000000
 
 Following cartesian coordinates:
            Coordinates               Weight
  0.000000  0.000000  0.000000      1.000000
  0.041291 -0.014599  0.000000      8.000000
  0.082582 -0.029197  0.000000      8.000000
  0.123873 -0.043796  0.000000      8.000000
  0.041291  0.029197  0.000000      6.000000
  0.082582  0.014599  0.000000     24.000000
  0.123873  0.000000  0.000000     24.000000
 -0.123873  0.087591 -0.000000     24.000000
 -0.082582  0.072993 -0.000000     24.000000
 -0.041291  0.058394 -0.000000     12.000000
  0.082582  0.058394  0.000000      6.000000
  0.123873  0.043796  0.000000     24.000000
 -0.123873  0.131387 -0.000000     24.000000
 -0.082582  0.116789 -0.000000     12.000000
  0.123873  0.087591  0.000000      6.000000
 -0.123873  0.175183 -0.000000     12.000000
  0.103228  0.029197  0.035759     24.000000
 -0.144519  0.116789  0.035759     48.000000
 -0.144519  0.160584  0.035759     24.000000
 -0.103228  0.145986  0.035759     24.000000
 
 TETIRR: Found     58 inequivalent tetrahedra from     2058


--------------------------------------------------------------------------------------------------------




 Dimension of arrays:
   k-points           NKPTS =     20   k-points in BZ     NKDIM =     20   number of bands    NBANDS=     16
   number of dos      NEDOS =    301   number of ions     NIONS =      2
   non local maximal  LDIM  =      4   non local SUM 2l+1 LMDIM =      8
   total plane-waves  NPLWV =  13824
   max r-space proj   IRMAX =   6355   max aug-charges    IRDMAX=   9013
   dimension x,y,z NGX =    24 NGY =   24 NGZ =   24
   dimension x,y,z NGXF=    48 NGYF=   48 NGZF=   48
   support grid    NGXF=    48 NGYF=   48 NGZF=   48
   ions per type =               1   1
 NGX,Y,Z   is equivalent  to a cutoff of   9.99,  9.99,  9.99 a.u.
 NGXF,Y,Z  is equivalent  to a cutoff of  19.97, 19.97, 19.97 a.u.


 I would recommend the setting:
   dimension x,y,z NGX =    22 NGY =   22 NGZ =   22
 SYSTEM =  unknown system                          
 POSCAR =  Na1 Cl1                                 

 Startparameter for this run:
   NWRITE =      2    write-flag & timer
   PREC   = accura    normal or accurate (medium, high low for compatibility)
   ISTART =      0    job   : 0-new  1-cont  2-samecut
   ICHARG =      2    charge: 1-file 2-atom 10-const
   ISPIN  =      2    spin polarized calculation?
   LNONCOLLINEAR =      F non collinear calculations
   LSORBIT =      F    spin-orbit coupling
   INIWAV =      1    electr: 0-lowe 1-rand  2-diag
   LASPH  =      F    aspherical Exc in radial PAW
   METAGGA=      F    non-selfconsistent MetaGGA calc.

 Electronic Relaxation 1
   ENCUT  =  280.0 eV  20.58 Ry    4.54 a.u.   5.45  5.45  5.45*2*pi/ulx,y,z
   ENINI  =  280.0     initial cutoff
   ENAUG  =  368.1 eV  augmentation charge cutoff
   NELM   =    100;   NELMIN=  2; NELMDL= -5     # of ELM steps 
   EDIFF  = 0.1E-03   stopping-criterion for ELM
   LREAL  =      T    real-space projection
   NLSPLINE    = F    spline interpolate recip. space projectors
   LCOMPAT=      F    compatible to vasp.4.4
   GGA_COMPAT  = T    GGA compatible to vasp.4.4-vasp.4.6
   LMAXPAW     = -100 max onsite density
   LMAXMIX     =    2 max onsite mixed and CHGCAR
   VOSKOWN=      0    Vosko Wilk Nusair interpolation
   ROPT   =   -0.00025  -0.00025
 Ionic relaxation
   EDIFFG = 0.1E-02   stopping-criterion for IOM
   NSW    =      0    number of steps for IOM
   NBLOCK =      1;   KBLOCK =      1    inner block; outer block 
   IBRION =     -1    ionic relax: 0-MD 1-quasi-New 2-CG
   NFREE  =      1    steps in history (QN), initial steepest desc. (CG)
   ISIF   =      2    stress and relaxation
   IWAVPR =     10    prediction:  0-non 1-charg 2-wave 3-comb
   ISYM   =      2    0-nonsym 1-usesym 2-fastsym
   LCORR  =      T    Harris-Foulkes like correction to forces

   POTIM  = 0.5000    time-step for ionic-motion
   TEIN   =    0.0    initial temperature
   TEBEG  =    0.0;   TEEND  =   0.0 temperature during run
   SMASS  =  -3.00    Nose mass-parameter (am)
   estimated Nose-frequenzy (Omega)   =  0.10E-29 period in steps =****** mass=  -0.365E-27a.u.
   SCALEE = 1.0000    scale energy and forces
   NPACO  =    256;   APACO  = 16.0  distance and # of slots for P.C.
   PSTRESS=    0.0 pullay stress

  Mass of Ions in am
   POMASS =  22.99 35.45
  Ionic Valenz
   ZVAL   =   7.00  7.00
  Atomic Wigner-Seitz radii
   RWIGS  =  -1.00 -1.00
  virtual crystal weights 
   VCA    =   1.00  1.00
   NELECT =      14.0000    total number of electrons
   NUPDOWN=      -1.0000    fix difference up-down

 DOS related values:
   EMIN   =  10.00;   EMAX   =-10.00  energy-range for DOS
   EFERMI =   0.00
   ISMEAR =    -5;   SIGMA  =   0.05  broadening in eV -4-tet -1-fermi 0-gaus

 Electronic relaxation 2 (details)
   IALGO  =     68    algorithm
   LDIAG  =      T    sub-space diagonalisation (order eigenvalues)
   LSUBROT=      F    optimize rotation matrix (better conditioning)
   TURBO    =      0    0=normal 1=particle mesh
   IRESTART =      0    0=no restart 2=restart with 2 vectors
   NREBOOT  =      0    no. of reboots
   NMIN     =      0    reboot dimension
   EREF     =   0.00    reference energy to select bands
   IMIX   =      4    mixing-type and parameters
     AMIX     =   0.40;   BMIX     =  1.00
     AMIX_MAG =   1.60;   BMIX_MAG =  1.00
     AMIN     =   0.10
     WC   =   100.;   INIMIX=   1;  MIXPRE=   1;  MAXMIX= -45

 Intra band minimization:
   WEIMIN = 0.0000     energy-eigenvalue tresh-hold
   EBREAK =  0.16E-05  absolut break condition
   DEPER  =   0.30     relativ break condition  

   TIME   =   0.40     timestep for ELM

  volume/ion in A,a.u.               =      22.54       152.12
  Fermi-wavevector in a.u.,A,eV,Ry     =   1.108597  2.094944 16.721374  1.228986
  Thomas-Fermi vector in A             =   2.245126
 
 Write flags
   LWAVE  =      F    write WAVECAR
   LCHARG =      T    write CHGCAR
   LVTOT  =      F    write LOCPOT, total local potential
   LVHAR  =      F    write LOCPOT, Hartree potential only
   LELF   =      F    write electronic localiz. function (ELF)
   LORBIT =     11    0 simple, 1 ext, 2 COOP (PROOUT)


 Dipole corrections
   LMONO  =      F    monopole corrections only (constant potential shift)
   LDIPOL =      F    correct potential (dipole corrections)
   IDIPOL =      0    1-x, 2-y, 3-z, 4-all directions 
   EPSILON=  1.0000000 bulk dielectric constant

 Exchange correlation treatment:
   GGA     =    --    GGA type
   LEXCH   =     8    internal setting for exchange type
   VOSKOWN=      0    Vosko Wilk Nusair interpolation
   LHFCALC =     F    Hartree Fock is set to
   LHFONE  =     F    Hartree Fock one center treatment
   AEXX    =    0.0000 exact exchange contribution

 Linear response parameters
   LEPSILON=     F    determine dielectric tensor
   LRPA    =     F    only Hartree local field effects (RPA)
   LNABLA  =     F    use nabla operator in PAW spheres
   LVEL    =     F    velocity operator in full k-point grid
   LINTERFAST=   F  fast interpolation
   KINTER  =     0    interpolate to denser k-point grid
   CSHIFT  =0.1000    complex shift for real part using Kramers Kronig
   OMEGAMAX=  -1.0    maximum frequency
   DEG_THRESHOLD= 0.2000000E-02 threshold for treating states as degnerate
   RTIME   =    0.100 relaxation time in fs

 Orbital magnetization related:
   ORBITALMAG=     F  switch on orbital magnetization
   LCHIMAG   =     F  perturbation theory with respect to B field
   DQ        =  0.001000  dq finite difference perturbation B field



--------------------------------------------------------------------------------------------------------


 Static calculation
 charge density and potential will be updated during run
 spin polarized calculation
 RMM-DIIS sequential band-by-band and
  variant of blocked Davidson during initial phase
 perform sub-space diagonalisation
    before iterative eigenvector-optimisation
 modified Broyden-mixing scheme, WC =      100.0
 initial mixing is a Kerker type mixing with AMIX =  0.4000 and BMIX =      1.0000
 Hartree-type preconditioning will be used
 using additional bands            9
 real space projection scheme for non local part
 use partial core corrections
 calculate Harris-corrections to forces 
   (improved forces if not selfconsistent)
 use gradient corrections 
 use of overlap-Matrix (Vanderbilt PP)
 Fermi weights with tetrahedron method with Bloechl corrections


--------------------------------------------------------------------------------------------------------


  energy-cutoff  :      280.00
  volume of cell :       45.08
      direct lattice vectors                 reciprocal lattice vectors
     3.459762230 -0.000000002  1.997495234     0.289037203 -0.102190070  0.000000000
     1.153254075  3.261895529  1.997495234     0.000000000  0.306570211  0.000000000
    -0.000000004 -0.000000003  3.994989483    -0.144518637 -0.102190095  0.250313550

  length of vectors
     3.994989599  3.994989939  3.994989483     0.306570245  0.306570211  0.306570262


 
 k-points in units of 2pi/SCALE and weight: pymatgen 4.7.6+ generated KPOINTS with g
   0.00000000  0.00000000  0.00000000       0.003
   0.04129103 -0.01459858  0.00000000       0.023
   0.08258206 -0.02919716  0.00000000       0.023
   0.12387309 -0.04379574  0.00000000       0.023
   0.04129103  0.02919716  0.00000000       0.017
   0.08258206  0.01459858  0.00000000       0.070
   0.12387309  0.00000000  0.00000000       0.070
  -0.12387309  0.08759149 -0.00000000       0.070
  -0.08258206  0.07299291 -0.00000000       0.070
  -0.04129103  0.05839433 -0.00000000       0.035
   0.08258206  0.05839433  0.00000000       0.017
   0.12387309  0.04379574  0.00000000       0.070
  -0.12387309  0.13138723 -0.00000000       0.070
  -0.08258206  0.11678865 -0.00000000       0.035
   0.12387309  0.08759149  0.00000000       0.017
  -0.12387309  0.17518298 -0.00000000       0.035
   0.10322757  0.02919716  0.03575908       0.070
  -0.14451861  0.11678865  0.03575908       0.140
  -0.14451861  0.16058439  0.03575908       0.070
  -0.10322758  0.14598581  0.03575908       0.070
 
 k-points in reciprocal lattice and weights: pymatgen 4.7.6+ generated KPOINTS with g
   0.00000000  0.00000000  0.00000000       0.003
   0.14285714 -0.00000000 -0.00000000       0.023
   0.28571429 -0.00000000  0.00000000       0.023
   0.42857143  0.00000000  0.00000000       0.023
   0.14285714  0.14285714 -0.00000000       0.017
   0.28571429  0.14285714  0.00000000       0.070
   0.42857143  0.14285714  0.00000000       0.070
  -0.42857143  0.14285714 -0.00000000       0.070
  -0.28571429  0.14285714  0.00000000       0.070
  -0.14285714  0.14285714  0.00000000       0.035
   0.28571429  0.28571429 -0.00000000       0.017
   0.42857143  0.28571429  0.00000000       0.070
  -0.42857143  0.28571429 -0.00000000       0.070
  -0.28571429  0.28571429  0.00000000       0.035
   0.42857143  0.42857143  0.00000000       0.017
  -0.42857143  0.42857143  0.00000000       0.035
   0.42857143  0.28571429  0.14285714       0.070
  -0.42857143  0.28571429  0.14285714       0.140
  -0.42857143  0.42857143  0.14285714       0.070
  -0.28571429  0.42857143  0.14285714       0.070
 
 position of ions in fractional coordinates (direct lattice) 
   0.00000000  0.00000000  0.00000000
   0.50000000  0.50000000  0.50000000
 
 position of ions in cartesian coordinates  (Angst):
   0.00000000  0.00000000  0.00000000
   2.30650815  1.63094776  3.99498998
 


--------------------------------------------------------------------------------------------------------


 k-point  1 :   0.0000 0.0000 0.0000  plane waves:     531
 k-point  2 :   0.1429-0.0000-0.0000  plane waves:     489
 k-point  3 :   0.2857-0.0000 0.0000  plane waves:     483
 k-point  4 :   0.4286 0.0000 0.0000  plane waves:     477
 k-point  5 :   0.1429 0.1429-0.0000  plane waves:     487
 k-point  6 :   0.2857 0.1429 0.0000  plane waves:     482
 k-point  7 :   0.4286 0.1429 0.0000  plane waves:     473
 k-point  8 :  -0.4286 0.1429-0.0000  plane waves:     477
 k-point  9 :  -0.2857 0.1429 0.0000  plane waves:     481
 k-point 10 :  -0.1429 0.1429 0.0000  plane waves:     485
 k-point 11 :   0.2857 0.2857-0.0000  plane waves:     488
 k-point 12 :   0.4286 0.2857 0.0000  plane waves:     471
 k-point 13 :  -0.4286 0.2857-0.0000  plane waves:     483
 k-point 14 :  -0.2857 0.2857 0.0000  plane waves:     478
 k-point 15 :   0.4286 0.4286 0.0000  plane waves:     468
 k-point 16 :  -0.4286 0.4286 0.0000  plane waves:     478
 k-point 17 :   0.4286 0.2857 0.1429  plane waves:     479
 k-point 18 :  -0.4286 0.2857 0.1429  plane waves:     482
 k-point 19 :  -0.4286 0.4286 0.1429  plane waves:     474
 k-point 20 :  -0.2857 0.4286 0.1429  plane waves:     471

 maximum and minimum number of plane-waves per node :       531      468

 maximum number of plane-waves:       531
 maximum index in each direction: 
   IXMAX=    5   IYMAX=    5   IZMAX=    5
   IXMIN=   -5   IYMIN=   -5   IZMIN=   -5

 NGX is ok and might be reduce to  22
 NGY is ok and might be reduce to  22
 NGZ is ok and might be reduce to  22

 serial   3D FFT for wavefunctions
 parallel 3D FFT for charge:
    minimum data exchange during FFTs selected (reduces bandwidth)


 total amount of memory used by VASP on root node    33308. kBytes
========================================================================

   base      :      30000. kBytes
   nonlr-proj:        939. kBytes
   fftplans  :        304. kBytes
   grid      :       1695. kBytes
   one-center:         12. kBytes
   wavefun   :        358. kBytes
 
     INWAV:  cpu time    0.0000: real time    0.0001
 Broyden mixing: mesh for mixing (old mesh)
   NGX = 11   NGY = 11   NGZ = 11
  (NGX  = 48   NGY  = 48   NGZ  = 48)
  gives a total of   1331 points

 initial charge density was supplied:
 charge density of overlapping atoms calculated
 number of electron      14.0000000 magnetization       2.0000000
 keeping initial charge density in first step


--------------------------------------------------------------------------------------------------------


 Maximum index for non-local projection operator         6099
 Maximum index for augmentation-charges          612 (set IRDMAX)


--------------------------------------------------------------------------------------------------------


 First call to EWALD:  gamma=   0.498
 Maximum number of real-space cells 3x 3x 3
 Maximum number of reciprocal cells 3x 3x 3

 FEWALD executed in parallel
    FEWALD:  cpu time    0.0018: real time    0.0018


----------------------------------------- Iteration    1(   1)  ---------------------------------------


    POTLOK:  cpu time    0.0153: real time    0.0154
    SETDIJ:  cpu time    0.0054: real time    0.0054
     EDDAV:  cpu time    0.3097: real time    0.3105
 BZINTS: Fermi energy:  5.656776; 14.000000 electrons
         Band energy:-133.761976;  BLOECHL correction: -0.056349
       DOS:  cpu time    0.0034: real time    0.0034
    --------------------------------------------
      LOOP:  cpu time    0.3363: real time    0.3479

 eigenvalue-minimisations  :  1280
 total energy-change (2. order) : 0.2828760E+02  (-0.6079773E+03)
 number of electron      14.0000000 magnetization       2.0000000
 augmentation part       14.0000000 magnetization       2.0000000

 Free energy of the ion-electron system (eV)
  ---------------------------------------------------
  alpha Z        PSCENC =        22.89454872
  Ewald energy   TEWEN  =      -708.69012362
  -Hartree energ DENC   =      -284.28484474
  -exchange      EXHF   =         0.00000000
  -V(xc)+E(xc)   XCENC  =        45.03591933
  PAW double counting   =       673.82954428     -762.45844458
  entropy T*S    EENTRO =         0.00000000
  eigenvalues    EBANDS =      -133.76197566
  atomic energy  EATOM  =      1175.72297216
  Solvation  Ediel_sol  =         0.00000000
  ---------------------------------------------------
  free energy    TOTEN  =        28.28759588 eV

  energy without entropy =       28.28759588  energy(sigma->0) =       28.28759588


--------------------------------------------------------------------------------------------------------




----------------------------------------- Iteration    1(   2)  ---------------------------------------


     EDDAV:  cpu time    0.4369: real time    0.4402
 BZINTS: Fermi energy: -0.648257; 14.000000 electrons
         Band energy:-167.766864;  BLOECHL correction:  0.000000
       DOS:  cpu time    0.0010: real time    0.0010
    --------------------------------------------
      LOOP:  cpu time    0.4384: real time    0.4680

 eigenvalue-minimisations  :  1712
 total energy-change (2. order) :-0.3400489E+02  (-0.3394708E+02)
 number of electron      14.0000000 magnetization       2.0000000
 augmentation part       14.0000000 magnetization       2.0000000

 Free energy of the ion-electron system (eV)
  ---------------------------------------------------
  alpha Z        PSCENC =        22.89454872
  Ewald energy   TEWEN  =      -708.69012362
  -Hartree energ DENC   =      -284.28484474
  -exchange      EXHF   =         0.00000000
  -V(xc)+E(xc)   XCENC  =        45.03591933
  PAW double counting   =       673.82954428     -762.45844458
  entropy T*S    EENTRO =         0.00000000
  eigenvalues    EBANDS =      -167.76686391
  atomic energy  EATOM  =      1175.72297216
  Solvation  Ediel_sol  =         0.00000000
  ---------------------------------------------------
  free energy    TOTEN  =        -5.71729237 eV

  energy without entropy =       -5.71729237  energy(sigma->0) =       -5.71729237


--------------------------------------------------------------------------------------------------------




----------------------------------------- Iteration    1(   3)  ---------------------------------------


     EDDAV:  cpu time    0.3545: real time    0.3550
 BZINTS: Fermi energy: -1.157698; 14.000000 electrons
         Band energy:-168.415125;  BLOECHL correction:  0.000000
       DOS:  cpu time    0.0008: real time    0.0008
    --------------------------------------------
      LOOP:  cpu time    0.3559: real time    0.3756

 eigenvalue-minimisations  :  1472
 total energy-change (2. order) :-0.6482611E+00  (-0.6482611E+00)
 number of electron      14.0000000 magnetization       2.0000000
 augmentation part       14.0000000 magnetization       2.0000000

 Free energy of the ion-electron system (eV)
  ---------------------------------------------------
  alpha Z        PSCENC =        22.89454872
  Ewald energy   TEWEN  =      -708.69012362
  -Hartree energ DENC   =      -284.28484474
  -exchange      EXHF   =         0.00000000
  -V(xc)+E(xc)   XCENC  =        45.03591933
  PAW double counting   =       673.82954428     -762.45844458
  entropy T*S    EENTRO =         0.00000000
  eigenvalues    EBANDS =      -168.41512503
  atomic energy  EATOM  =      1175.72297216
  Solvation  Ediel_sol  =         0.00000000
  ---------------------------------------------------
  free energy    TOTEN  =        -6.36555349 eV

  energy without entropy =       -6.36555349  energy(sigma->0) =       -6.36555349


--------------------------------------------------------------------------------------------------------




----------------------------------------- Iteration    1(   4)  ---------------------------------------


     EDDAV:  cpu time    0.5599: real time    0.5609
 BZINTS: Fermi energy: -1.170278; 14.000000 electrons
         Band energy:-168.417657;  BLOECHL correction:  0.000000
       DOS:  cpu time    0.0008: real time    0.0008
    --------------------------------------------
      LOOP:  cpu time    0.5612: real time    0.5690

 eigenvalue-minimisations  :  2112
 total energy-change (2. order) :-0.2531715E-02  (-0.2531715E-02)
 number of electron      14.0000000 magnetization       2.0000000
 augmentation part       14.0000000 magnetization       2.0000000

 Free energy of the ion-electron system (eV)
  ---------------------------------------------------
  alpha Z        PSCENC =        22.89454872
  Ewald energy   TEWEN  =      -708.69012362
  -Hartree energ DENC   =      -284.28484474
  -exchange      EXHF   =         0.00000000
  -V(xc)+E(xc)   XCENC  =        45.03591933
  PAW double counting   =       673.82954428     -762.45844458
  entropy T*S    EENTRO =         0.00000000
  eigenvalues    EBANDS =      -168.41765675
  atomic energy  EATOM  =      1175.72297216
  Solvation  Ediel_sol  =         0.00000000
  ---------------------------------------------------
  free energy    TOTEN  =        -6.36808521 eV

  energy without entropy =       -6.36808521  energy(sigma->0) =       -6.36808521


--------------------------------------------------------------------------------------------------------




----------------------------------------- Iteration    1(   5)  ---------------------------------------


     EDDAV:  cpu time    0.3793: real time    0.3797
 BZINTS: Fermi energy: -1.275731; 14.000000 electrons
         Band energy:-168.417658;  BLOECHL correction:  0.000000
       DOS:  cpu time    0.0007: real time    0.0007
    CHARGE:  cpu time    0.0170: real time    0.0170
    MIXING:  cpu time    0.0004: real time    0.0004
    --------------------------------------------
      LOOP:  cpu time    0.3980: real time    0.4426

 eigenvalue-minimisations  :  1520
 total energy-change (2. order) :-0.1560766E-05  (-0.1560766E-05)
 number of electron      13.9999983 magnetization      -0.5206508
 augmentation part        3.4919977 magnetization      -0.4988282

 Broyden mixing:
  rms(total) = 0.83137E+00    rms(broyden)= 0.83125E+00
  rms(prec ) = 0.10983E+01
  weight for this iteration     100.00

 Free energy of the ion-electron system (eV)
  ---------------------------------------------------
  alpha Z        PSCENC =        22.89454872
  Ewald energy   TEWEN  =      -708.69012362
  -Hartree energ DENC   =      -284.28484474
  -exchange      EXHF   =         0.00000000
  -V(xc)+E(xc)   XCENC  =        45.03591933
  PAW double counting   =       673.82954428     -762.45844458
  entropy T*S    EENTRO =         0.00000000
  eigenvalues    EBANDS =      -168.41765831
  atomic energy  EATOM  =      1175.72297216
  Solvation  Ediel_sol  =         0.00000000
  ---------------------------------------------------
  free energy    TOTEN  =        -6.36808677 eV

  energy without entropy =       -6.36808677  energy(sigma->0) =       -6.36808677


--------------------------------------------------------------------------------------------------------




----------------------------------------- Iteration    1(   6)  ---------------------------------------


    POTLOK:  cpu time    0.0134: real time    0.0134
    SETDIJ:  cpu time    0.0050: real time    0.0050
    EDDIAG:  cpu time    0.0840: real time    0.0849
  RMM-DIIS:  cpu time    0.2102: real time    0.2105
    ORTHCH:  cpu time    0.0074: real time    0.0074
 BZINTS: Fermi energy: -1.007912; 14.000000 electrons
         Band energy:-166.061869;  BLOECHL correction:  0.000000
       DOS:  cpu time    0.0007: real time    0.0007
    CHARGE:  cpu time    0.0179: real time    0.0179
    MIXING:  cpu time    0.0005: real time    0.0005
    --------------------------------------------
      LOOP:  cpu time    0.3397: real time    0.3568

 eigenvalue-minimisations  :  1514
 total energy-change (2. order) :-0.3298569E+00  (-0.4098643E-01)
 number of electron      13.9999983 magnetization       0.0338927
 augmentation part        3.5198217 magnetization       0.0210917

 Broyden mixing:
  rms(total) = 0.32330E+00    rms(broyden)= 0.32326E+00
  rms(prec ) = 0.44231E+00
  weight for this iteration     100.00

 eigenvalues of (default mixing * dielectric matrix)
  average eigenvalue GAMMA=   0.7232
  0.7232

 Free energy of the ion-electron system (eV)
  ---------------------------------------------------
  alpha Z        PSCENC =        22.89454872
  Ewald energy   TEWEN  =      -708.69012362
  -Hartree energ DENC   =      -287.15111669
  -exchange      EXHF   =         0.00000000
  -V(xc)+E(xc)   XCENC  =        45.17256617
  PAW double counting   =       683.55424085     -772.13916219
  entropy T*S    EENTRO =         0.00000000
  eigenvalues    EBANDS =      -166.06186904
  atomic energy  EATOM  =      1175.72297216
  Solvation  Ediel_sol  =         0.00000000
  ---------------------------------------------------
  free energy    TOTEN  =        -6.69794365 eV

  energy without entropy =       -6.69794365  energy(sigma->0) =       -6.69794365


--------------------------------------------------------------------------------------------------------




----------------------------------------- Iteration    1(   7)  ---------------------------------------


    POTLOK:  cpu time    0.0132: real time    0.0132
    SETDIJ:  cpu time    0.0049: real time    0.0049
    EDDIAG:  cpu time    0.0793: real time    0.0801
  RMM-DIIS:  cpu time    0.2191: real time    0.2193
    ORTHCH:  cpu time    0.0074: real time    0.0074
 BZINTS: Fermi energy: -0.838149; 14.000000 electrons
         Band energy:-165.404994;  BLOECHL correction:  0.000000
       DOS:  cpu time    0.0008: real time    0.0008
    CHARGE:  cpu time    0.0175: real time    0.0175
    MIXING:  cpu time    0.0004: real time    0.0004
    --------------------------------------------
      LOOP:  cpu time    0.3433: real time    0.3794

 eigenvalue-minimisations  :  1470
 total energy-change (2. order) :-0.6479969E-01  (-0.7891076E-02)
 number of electron      13.9999982 magnetization       0.0448395
 augmentation part        3.5273299 magnetization       0.0483743

 Broyden mixing:
  rms(total) = 0.83942E-01    rms(broyden)= 0.83929E-01
  rms(prec ) = 0.19651E+00
  weight for this iteration     100.00

 eigenvalues of (default mixing * dielectric matrix)
  average eigenvalue GAMMA=   0.8079
  0.9049  0.7109

 Free energy of the ion-electron system (eV)
  ---------------------------------------------------
  alpha Z        PSCENC =        22.89454872
  Ewald energy   TEWEN  =      -708.69012362
  -Hartree energ DENC   =      -287.87346247
  -exchange      EXHF   =         0.00000000
  -V(xc)+E(xc)   XCENC  =        45.26474274
  PAW double counting   =       686.12487339     -774.80130026
  entropy T*S    EENTRO =         0.00000000
  eigenvalues    EBANDS =      -165.40499399
  atomic energy  EATOM  =      1175.72297216
  Solvation  Ediel_sol  =         0.00000000
  ---------------------------------------------------
  free energy    TOTEN  =        -6.76274334 eV

  energy without entropy =       -6.76274334  energy(sigma->0) =       -6.76274334


--------------------------------------------------------------------------------------------------------




----------------------------------------- Iteration    1(   8)  ---------------------------------------


    POTLOK:  cpu time    0.0132: real time    0.0133
    SETDIJ:  cpu time    0.0048: real time    0.0048
    EDDIAG:  cpu time    0.0793: real time    0.0800
  RMM-DIIS:  cpu time    0.2492: real time    0.2494
    ORTHCH:  cpu time    0.0074: real time    0.0074
 BZINTS: Fermi energy: -0.693224; 14.000000 electrons
         Band energy:-164.955566;  BLOECHL correction:  0.000000
       DOS:  cpu time    0.0008: real time    0.0008
    CHARGE:  cpu time    0.0173: real time    0.0173
    MIXING:  cpu time    0.0004: real time    0.0004
    --------------------------------------------
      LOOP:  cpu time    0.3729: real time    0.3811

 eigenvalue-minimisations  :  1617
 total energy-change (2. order) :-0.5161564E-02  (-0.2354954E-02)
 number of electron      13.9999982 magnetization      -0.0393978
 augmentation part        3.5322178 magnetization      -0.0403719

 Broyden mixing:
  rms(total) = 0.36692E-01    rms(broyden)= 0.36683E-01
  rms(prec ) = 0.85732E-01
  weight for this iteration     100.00

 eigenvalues of (default mixing * dielectric matrix)
  average eigenvalue GAMMA=   1.0915
  1.7738  0.8005  0.7004

 Free energy of the ion-electron system (eV)
  ---------------------------------------------------
  alpha Z        PSCENC =        22.89454872
  Ewald energy   TEWEN  =      -708.69012362
  -Hartree energ DENC   =      -288.32360269
  -exchange      EXHF   =         0.00000000
  -V(xc)+E(xc)   XCENC  =        45.38465189
  PAW double counting   =       687.80788375     -776.60866888
  entropy T*S    EENTRO =         0.00000000
  eigenvalues    EBANDS =      -164.95556622
  atomic energy  EATOM  =      1175.72297216
  Solvation  Ediel_sol  =         0.00000000
  ---------------------------------------------------
  free energy    TOTEN  =        -6.76790490 eV

  energy without entropy =       -6.76790490  energy(sigma->0) =       -6.76790490


--------------------------------------------------------------------------------------------------------




----------------------------------------- Iteration    1(   9)  ---------------------------------------


    POTLOK:  cpu time    0.0132: real time    0.0132
    SETDIJ:  cpu time    0.0048: real time    0.0048
    EDDIAG:  cpu time    0.0791: real time    0.0798
  RMM-DIIS:  cpu time    0.2469: real time    0.2474
    ORTHCH:  cpu time    0.0074: real time    0.0074
 BZINTS: Fermi energy: -0.697326; 14.000000 electrons
         Band energy:-165.038215;  BLOECHL correction:  0.000000
       DOS:  cpu time    0.0008: real time    0.0008
    CHARGE:  cpu time    0.0175: real time    0.0175
    MIXING:  cpu time    0.0004: real time    0.0004
    --------------------------------------------
      LOOP:  cpu time    0.3707: real time    0.3901

 eigenvalue-minimisations  :  1587
 total energy-change (2. order) :-0.2411430E-02  (-0.4138921E-03)
 number of electron      13.9999982 magnetization      -0.0050946
 augmentation part        3.5320052 magnetization      -0.0048550

 Broyden mixing:
  rms(total) = 0.20845E-01    rms(broyden)= 0.20844E-01
  rms(prec ) = 0.35198E-01
  weight for this iteration     100.00

 eigenvalues of (default mixing * dielectric matrix)
  average eigenvalue GAMMA=   1.2801
  2.5133  1.1668  0.7556  0.6846

 Free energy of the ion-electron system (eV)
  ---------------------------------------------------
  alpha Z        PSCENC =        22.89454872
  Ewald energy   TEWEN  =      -708.69012362
  -Hartree energ DENC   =      -288.19289688
  -exchange      EXHF   =         0.00000000
  -V(xc)+E(xc)   XCENC  =        45.42504469
  PAW double counting   =       687.48793326     -776.37958013
  entropy T*S    EENTRO =         0.00000000
  eigenvalues    EBANDS =      -165.03821452
  atomic energy  EATOM  =      1175.72297216
  Solvation  Ediel_sol  =         0.00000000
  ---------------------------------------------------
  free energy    TOTEN  =        -6.77031633 eV

  energy without entropy =       -6.77031633  energy(sigma->0) =       -6.77031633


--------------------------------------------------------------------------------------------------------




----------------------------------------- Iteration    1(  10)  ---------------------------------------


    POTLOK:  cpu time    0.0131: real time    0.0132
    SETDIJ:  cpu time    0.0048: real time    0.0048
    EDDIAG:  cpu time    0.0793: real time    0.0799
  RMM-DIIS:  cpu time    0.2404: real time    0.2407
    ORTHCH:  cpu time    0.0074: real time    0.0074
 BZINTS: Fermi energy: -0.695321; 14.000000 electrons
         Band energy:-165.130905;  BLOECHL correction:  0.000000
       DOS:  cpu time    0.0007: real time    0.0007
    CHARGE:  cpu time    0.0175: real time    0.0175
    MIXING:  cpu time    0.0005: real time    0.0005
    --------------------------------------------
      LOOP:  cpu time    0.3644: real time    0.4022

 eigenvalue-minimisations  :  1430
 total energy-change (2. order) :-0.1530929E-02  (-0.1500878E-03)
 number of electron      13.9999982 magnetization       0.0009907
 augmentation part        3.5316862 magnetization       0.0015543

 Broyden mixing:
  rms(total) = 0.47426E-02    rms(broyden)= 0.47421E-02
  rms(prec ) = 0.65455E-02
  weight for this iteration     100.00

 eigenvalues of (default mixing * dielectric matrix)
  average eigenvalue GAMMA=   1.2538
  2.6782  1.4102  0.8034  0.7356  0.6418

 Free energy of the ion-electron system (eV)
  ---------------------------------------------------
  alpha Z        PSCENC =        22.89454872
  Ewald energy   TEWEN  =      -708.69012362
  -Hartree energ DENC   =      -288.07531193
  -exchange      EXHF   =         0.00000000
  -V(xc)+E(xc)   XCENC  =        45.44182836
  PAW double counting   =       687.11166466     -776.04652089
  entropy T*S    EENTRO =         0.00000000
  eigenvalues    EBANDS =      -165.13090471
  atomic energy  EATOM  =      1175.72297216
  Solvation  Ediel_sol  =         0.00000000
  ---------------------------------------------------
  free energy    TOTEN  =        -6.77184726 eV

  energy without entropy =       -6.77184726  energy(sigma->0) =       -6.77184726


--------------------------------------------------------------------------------------------------------




----------------------------------------- Iteration    1(  11)  ---------------------------------------


    POTLOK:  cpu time    0.0131: real time    0.0132
    SETDIJ:  cpu time    0.0048: real time    0.0048
    EDDIAG:  cpu time    0.0790: real time    0.0796
  RMM-DIIS:  cpu time    0.2488: real time    0.2490
    ORTHCH:  cpu time    0.0074: real time    0.0074
 BZINTS: Fermi energy: -0.694998; 14.000000 electrons
         Band energy:-165.135356;  BLOECHL correction:  0.000000
       DOS:  cpu time    0.0008: real time    0.0008
    CHARGE:  cpu time    0.0175: real time    0.0175
    MIXING:  cpu time    0.0005: real time    0.0005
    --------------------------------------------
      LOOP:  cpu time    0.3725: real time    0.3887

 eigenvalue-minimisations  :  1381
 total energy-change (2. order) :-0.1188982E-03  (-0.1876635E-04)
 number of electron      13.9999982 magnetization       0.0000609
 augmentation part        3.5317782 magnetization      -0.0000732

 Broyden mixing:
  rms(total) = 0.19852E-02    rms(broyden)= 0.19851E-02
  rms(prec ) = 0.36645E-02
  weight for this iteration     100.00

 eigenvalues of (default mixing * dielectric matrix)
  average eigenvalue GAMMA=   1.2406
  2.6894  1.5134  1.0801  0.7809  0.7478  0.6318

 Free energy of the ion-electron system (eV)
  ---------------------------------------------------
  alpha Z        PSCENC =        22.89454872
  Ewald energy   TEWEN  =      -708.69012362
  -Hartree energ DENC   =      -288.07155740
  -exchange      EXHF   =         0.00000000
  -V(xc)+E(xc)   XCENC  =        45.44213072
  PAW double counting   =       687.05320181     -775.98778266
  entropy T*S    EENTRO =         0.00000000
  eigenvalues    EBANDS =      -165.13535589
  atomic energy  EATOM  =      1175.72297216
  Solvation  Ediel_sol  =         0.00000000
  ---------------------------------------------------
  free energy    TOTEN  =        -6.77196616 eV

  energy without entropy =       -6.77196616  energy(sigma->0) =       -6.77196616


--------------------------------------------------------------------------------------------------------




----------------------------------------- Iteration    1(  12)  ---------------------------------------


    POTLOK:  cpu time    0.0131: real time    0.0131
    SETDIJ:  cpu time    0.0048: real time    0.0048
    EDDIAG:  cpu time    0.0790: real time    0.0797
  RMM-DIIS:  cpu time    0.2620: real time    0.2624
    ORTHCH:  cpu time    0.0086: real time    0.0086
 BZINTS: Fermi energy: -0.694762; 14.000000 electrons
         Band energy:-165.136296;  BLOECHL correction:  0.000000
       DOS:  cpu time    0.0007: real time    0.0007
    --------------------------------------------
      LOOP:  cpu time    0.3689: real time    0.3907

 eigenvalue-minimisations  :  1215
 total energy-change (2. order) :-0.3206706E-04  (-0.4903070E-05)
 number of electron      13.9999982 magnetization       0.0000609
 augmentation part        3.5317782 magnetization      -0.0000732

 Free energy of the ion-electron system (eV)
  ---------------------------------------------------
  alpha Z        PSCENC =        22.89454872
  Ewald energy   TEWEN  =      -708.69012362
  -Hartree energ DENC   =      -288.07060019
  -exchange      EXHF   =         0.00000000
  -V(xc)+E(xc)   XCENC  =        45.44159863
  PAW double counting   =       686.94558073     -775.87967822
  entropy T*S    EENTRO =         0.00000000
  eigenvalues    EBANDS =      -165.13629643
  atomic energy  EATOM  =      1175.72297216
  Solvation  Ediel_sol  =         0.00000000
  ---------------------------------------------------
  free energy    TOTEN  =        -6.77199823 eV

  energy without entropy =       -6.77199823  energy(sigma->0) =       -6.77199823


--------------------------------------------------------------------------------------------------------




 average (electrostatic) potential at core
  the test charge radii are     0.9254  0.9406
  (the norm of the test charge is              1.0000)
       1 -47.4017       2 -93.5839
 
 
 
 E-fermi :  -0.6948     XC(G=0):  -8.1485     alpha+bet : -8.0445


 spin component 1

 k-point     1 :       0.0000    0.0000    0.0000
  band No.  band energies     occupation 
      1     -21.5853      1.00000
      2     -21.5853      1.00000
      3     -21.5853      1.00000
      4     -13.4138      1.00000
      5      -0.7617      1.00000
      6      -0.7617      1.00000
      7      -0.7617      1.00000
      8       4.3165      0.00000
      9      10.3586      0.00000
     10      10.3586      0.00000
     11      10.3586      0.00000
     12      12.5273      0.00000
     13      12.5273      0.00000
     14      14.0931      0.00000
     15      16.2935      0.00000
     16      16.2936      0.00000

 k-point     2 :       0.1429   -0.0000   -0.0000
  band No.  band energies     occupation 
      1     -21.5898      1.00000
      2     -21.5849      1.00000
      3     -21.5849      1.00000
      4     -13.3542      1.00000
      5      -1.2203      1.00000
      6      -0.8110      1.00000
      7      -0.8110      1.00000
      8       4.9419      0.00000
      9       9.7095      0.00000
     10      10.5986      0.00000
     11      10.5986      0.00000
     12      12.2330      0.00000
     13      12.2330      0.00000
     14      15.1136      0.00000
     15      16.2645      0.00000
     16      17.3229      0.00000

 k-point     3 :       0.2857   -0.0000    0.0000
  band No.  band energies     occupation 
      1     -21.6020      1.00000
      2     -21.5860      1.00000
      3     -21.5859      1.00000
      4     -13.2157      1.00000
      5      -2.0453      1.00000
      6      -0.9226      1.00000
      7      -0.9226      1.00000
      8       6.0273      0.00000
      9       9.2164      0.00000
     10      10.5663      0.00000
     11      10.5664      0.00000
     12      12.7807      0.00000
     13      12.7807      0.00000
     14      14.6303      0.00000
     15      18.9808      0.00000
     16      19.5440      0.00000

 k-point     4 :       0.4286    0.0000    0.0000
  band No.  band energies     occupation 
      1     -21.6116      1.00000
      2     -21.5866      1.00000
      3     -21.5865      1.00000
      4     -13.0996      1.00000
      5      -2.5942      1.00000
      6      -1.0077      1.00000
      7      -1.0077      1.00000
      8       6.4710      0.00000
      9       9.6724      0.00000
     10      10.2599      0.00000
     11      10.2599      0.00000
     12      14.2087      0.00000
     13      14.6171      0.00000
     14      14.6171      0.00000
     15      17.1621      0.00000
     16      17.4191      0.00000

 k-point     5 :       0.1429    0.1429   -0.0000
  band No.  band energies     occupation 
      1     -21.5894      1.00000
      2     -21.5860      1.00000
      3     -21.5860      1.00000
      4     -13.3363      1.00000
      5      -1.2424      1.00000
      6      -0.8825      1.00000
      7      -0.8825      1.00000
      8       5.1458      0.00000
      9       9.3609      0.00000
     10      10.8348      0.00000
     11      10.8348      0.00000
     12      11.3227      0.00000
     13      12.8182      0.00000
     14      15.8260      0.00000
     15      16.8358      0.00000
     16      16.8359      0.00000

 k-point     6 :       0.2857    0.1429    0.0000
  band No.  band energies     occupation 
      1     -21.5980      1.00000
      2     -21.5874      1.00000
      3     -21.5868      1.00000
      4     -13.2286      1.00000
      5      -1.8347      1.00000
      6      -1.0074      1.00000
      7      -1.0034      1.00000
      8       6.1243      0.00000
      9       8.8007      0.00000
     10      10.2359      0.00000
     11      11.0880      0.00000
     12      11.8386      0.00000
     13      13.3146      0.00000
     14      16.0848      0.00000
     15      18.1830      0.00000
     16      18.3721      0.00000

 k-point     7 :       0.4286    0.1429    0.0000
  band No.  band energies     occupation 
      1     -21.6073      1.00000
      2     -21.5881      1.00000
      3     -21.5877      1.00000
      4     -13.1080      1.00000
      5      -2.3837      1.00000
      6      -1.1803      1.00000
      7      -1.0813      1.00000
      8       6.8648      0.00000
      9       9.0565      0.00000
     10       9.6667      0.00000
     11      10.7835      0.00000
     12      13.2461      0.00000
     13      14.9208      0.00000
     14      15.6562      0.00000
     15      16.9262      0.00000
     16      17.3886      0.00000

 k-point     8 :      -0.4286    0.1429   -0.0000
  band No.  band energies     occupation 
      1     -21.6103      1.00000
      2     -21.5897      1.00000
      3     -21.5874      1.00000
      4     -13.0685      1.00000
      5      -2.5372      1.00000
      6      -1.2889      1.00000
      7      -1.0648      1.00000
      8       7.0093      0.00000
      9       9.2772      0.00000
     10       9.7794      0.00000
     11      10.5771      0.00000
     12      14.4843      0.00000
     13      14.5060      0.00000
     14      15.4430      0.00000
     15      16.2859      0.00000
     16      17.6453      0.00000

 k-point     9 :      -0.2857    0.1429    0.0000
  band No.  band energies     occupation 
      1     -21.6049      1.00000
      2     -21.5896      1.00000
      3     -21.5861      1.00000
      4     -13.1427      1.00000
      5      -2.2272      1.00000
      6      -1.2424      1.00000
      7      -0.9633      1.00000
      8       6.7577      0.00000
      9       9.0589      0.00000
     10       9.8145      0.00000
     11      10.7538      0.00000
     12      12.4524      0.00000
     13      14.5611      0.00000
     14      15.7397      0.00000
     15      16.7616      0.00000
     16      18.8134      0.00000

 k-point    10 :      -0.1429    0.1429    0.0000
  band No.  band energies     occupation 
      1     -21.5957      1.00000
      2     -21.5876      1.00000
      3     -21.5851      1.00000
      4     -13.2701      1.00000
      5      -1.6555      1.00000
      6      -1.0316      1.00000
      7      -0.8489      1.00000
      8       5.7556      0.00000
      9       9.1593      0.00000
     10      10.4743      0.00000
     11      11.0636      0.00000
     12      11.4055      0.00000
     13      13.0050      0.00000
     14      16.2152      0.00000
     15      16.5509      0.00000
     16      18.1406      0.00000

 k-point    11 :       0.2857    0.2857   -0.0000
  band No.  band energies     occupation 
      1     -21.5990      1.00000
      2     -21.5896      1.00000
      3     -21.5896      1.00000
      4     -13.1721      1.00000
      5      -1.9756      1.00000
      6      -1.1377      1.00000
      7      -1.1377      1.00000
      8       6.5925      0.00000
      9       8.0977      0.00000
     10       9.8349      0.00000
     11      12.0456      0.00000
     12      12.0456      0.00000
     13      13.5753      0.00000
     14      18.1631      0.00000
     15      18.1631      0.00000
     16      19.2216      0.00000

 k-point    12 :       0.4286    0.2857    0.0000
  band No.  band energies     occupation 
      1     -21.6027      1.00000
      2     -21.5918      1.00000
      3     -21.5903      1.00000
      4     -13.0869      1.00000
      5      -2.2353      1.00000
      6      -1.3692      1.00000
      7      -1.2233      1.00000
      8       7.1436      0.00000
      9       7.9826      0.00000
     10       9.5455      0.00000
     11      12.0519      0.00000
     12      13.0008      0.00000
     13      14.8641      0.00000
     14      16.7765      0.00000
     15      17.3530      0.00000
     16      18.5094      0.00000

 k-point    13 :      -0.4286    0.2857   -0.0000
  band No.  band energies     occupation 
      1     -21.6045      1.00000
      2     -21.5961      1.00000
      3     -21.5897      1.00000
      4     -13.0377      1.00000
      5      -2.2515      1.00000
      6      -1.7345      1.00000
      7      -1.2036      1.00000
      8       7.5792      0.00000
      9       8.4782      0.00000
     10       9.4987      0.00000
     11      11.5739      0.00000
     12      13.0001      0.00000
     13      14.8159      0.00000
     14      16.6051      0.00000
     15      17.4164      0.00000
     16      18.4659      0.00000

 k-point    14 :      -0.2857    0.2857    0.0000
  band No.  band energies     occupation 
      1     -21.6043      1.00000
      2     -21.5958      1.00000
      3     -21.5874      1.00000
      4     -13.0631      1.00000
      5      -2.2050      1.00000
      6      -1.7322      1.00000
      7      -1.0900      1.00000
      8       7.8026      0.00000
      9       8.8093      0.00000
     10       9.0758      0.00000
     11      11.2003      0.00000
     12      13.0754      0.00000
     13      13.9365      0.00000
     14      16.6749      0.00000
     15      17.8679      0.00000
     16      18.5472      0.00000

 k-point    15 :       0.4286    0.4286    0.0000
  band No.  band energies     occupation 
      1     -21.6037      1.00000
      2     -21.5920      1.00000
      3     -21.5920      1.00000
      4     -13.0518      1.00000
      5      -2.3600      1.00000
      6      -1.3235      1.00000
      7      -1.3235      1.00000
      8       6.8256      0.00000
      9       7.4116      0.00000
     10      10.2549      0.00000
     11      13.5673      0.00000
     12      13.5674      0.00000
     13      14.4076      0.00000
     14      16.7885      0.00000
     15      16.8165      0.00000
     16      16.8165      0.00000

 k-point    16 :      -0.4286    0.4286    0.0000
  band No.  band energies     occupation 
      1     -21.6034      1.00000
      2     -21.5954      1.00000
      3     -21.5918      1.00000
      4     -13.0299      1.00000
      5      -2.3202      1.00000
      6      -1.5594      1.00000
      7      -1.3153      1.00000
      8       7.0614      0.00000
      9       7.6688      0.00000
     10      10.2248      0.00000
     11      12.8257      0.00000
     12      13.2720      0.00000
     13      15.7274      0.00000
     14      15.9758      0.00000
     15      16.6843      0.00000
     16      16.9866      0.00000

 k-point    17 :       0.4286    0.2857    0.1429
  band No.  band energies     occupation 
      1     -21.6021      1.00000
      2     -21.5914      1.00000
      3     -21.5876      1.00000
      4     -13.1335      1.00000
      5      -2.1195      1.00000
      6      -1.3368      1.00000
      7      -1.0762      1.00000
      8       7.0673      0.00000
      9       8.4858      0.00000
     10       9.4308      0.00000
     11      11.4791      0.00000
     12      12.2359      0.00000
     13      14.6546      0.00000
     14      16.7990      0.00000
     15      17.6202      0.00000
     16      17.8172      0.00000

 k-point    18 :      -0.4286    0.2857    0.1429
  band No.  band energies     occupation 
      1     -21.6057      1.00000
      2     -21.5938      1.00000
      3     -21.5893      1.00000
      4     -13.0552      1.00000
      5      -2.2982      1.00000
      6      -1.5799      1.00000
      7      -1.1939      1.00000
      8       7.7368      0.00000
      9       8.6655      0.00000
     10       9.1356      0.00000
     11      11.1773      0.00000
     12      13.3732      0.00000
     13      14.7577      0.00000
     14      16.0943      0.00000
     15      17.5695      0.00000
     16      18.0044      0.00000

 k-point    19 :      -0.4286    0.4286    0.1429
  band No.  band energies     occupation 
      1     -21.6027      1.00000
      2     -21.5942      1.00000
      3     -21.5926      1.00000
      4     -13.0378      1.00000
      5      -2.2422      1.00000
      6      -1.5568      1.00000
      7      -1.3868      1.00000
      8       7.4847      0.00000
      9       8.0002      0.00000
     10       9.5933      0.00000
     11      11.8081      0.00000
     12      13.8379      0.00000
     13      15.2009      0.00000
     14      15.9679      0.00000
     15      16.8744      0.00000
     16      18.1810      0.00000

 k-point    20 :      -0.2857    0.4286    0.1429
  band No.  band energies     occupation 
      1     -21.5995      1.00000
      2     -21.5990      1.00000
      3     -21.5917      1.00000
      4     -13.0238      1.00000
      5      -2.0089      1.00000
      6      -1.9456      1.00000
      7      -1.3685      1.00000
      8       7.9940      0.00000
      9       8.5056      0.00000
     10       9.2721      0.00000
     11      10.9736      0.00000
     12      13.8663      0.00000
     13      14.6403      0.00000
     14      16.4347      0.00000
     15      16.9688      0.00000
     16      18.6216      0.00000

 spin component 2

 k-point     1 :       0.0000    0.0000    0.0000
  band No.  band energies     occupation 
      1     -21.5863      1.00000
      2     -21.5863      1.00000
      3     -21.5863      1.00000
      4     -13.4134      1.00000
      5      -0.7610      1.00000
      6      -0.7610      1.00000
      7      -0.7610      1.00000
      8       4.3170      0.00000
      9      10.3597      0.00000
     10      10.3597      0.00000
     11      10.3597      0.00000
     12      12.5292      0.00000
     13      12.5292      0.00000
     14      14.0896      0.00000
     15      16.2956      0.00000
     16      16.2957      0.00000

 k-point     2 :       0.1429   -0.0000   -0.0000
  band No.  band energies     occupation 
      1     -21.5907      1.00000
      2     -21.5859      1.00000
      3     -21.5859      1.00000
      4     -13.3537      1.00000
      5      -1.2196      1.00000
      6      -0.8104      1.00000
      7      -0.8104      1.00000
      8       4.9424      0.00000
      9       9.7099      0.00000
     10      10.5998      0.00000
     11      10.5998      0.00000
     12      12.2350      0.00000
     13      12.2350      0.00000
     14      15.1120      0.00000
     15      16.2647      0.00000
     16      17.3248      0.00000

 k-point     3 :       0.2857   -0.0000    0.0000
  band No.  band energies     occupation 
      1     -21.6030      1.00000
      2     -21.5869      1.00000
      3     -21.5869      1.00000
      4     -13.2152      1.00000
      5      -2.0446      1.00000
      6      -0.9220      1.00000
      7      -0.9219      1.00000
      8       6.0278      0.00000
      9       9.2164      0.00000
     10      10.5680      0.00000
     11      10.5680      0.00000
     12      12.7823      0.00000
     13      12.7823      0.00000
     14      14.6302      0.00000
     15      18.9788      0.00000
     16      19.5440      0.00000

 k-point     4 :       0.4286    0.0000    0.0000
  band No.  band energies     occupation 
      1     -21.6126      1.00000
      2     -21.5875      1.00000
      3     -21.5875      1.00000
      4     -13.0992      1.00000
      5      -2.5934      1.00000
      6      -1.0071      1.00000
      7      -1.0071      1.00000
      8       6.4712      0.00000
      9       9.6728      0.00000
     10      10.2617      0.00000
     11      10.2617      0.00000
     12      14.2082      0.00000
     13      14.6183      0.00000
     14      14.6183      0.00000
     15      17.1620      0.00000
     16      17.4207      0.00000

 k-point     5 :       0.1429    0.1429   -0.0000
  band No.  band energies     occupation 
      1     -21.5903      1.00000
      2     -21.5870      1.00000
      3     -21.5870      1.00000
      4     -13.3359      1.00000
      5      -1.2418      1.00000
      6      -0.8819      1.00000
      7      -0.8819      1.00000
      8       5.1464      0.00000
      9       9.3612      0.00000
     10      10.8360      0.00000
     11      10.8360      0.00000
     12      11.3247      0.00000
     13      12.8201      0.00000
     14      15.8234      0.00000
     15      16.8378      0.00000
     16      16.8379      0.00000

 k-point     6 :       0.2857    0.1429    0.0000
  band No.  band energies     occupation 
      1     -21.5990      1.00000
      2     -21.5884      1.00000
      3     -21.5878      1.00000
      4     -13.2282      1.00000
      5      -1.8340      1.00000
      6      -1.0068      1.00000
      7      -1.0027      1.00000
      8       6.1249      0.00000
      9       8.8006      0.00000
     10      10.2376      0.00000
     11      11.0894      0.00000
     12      11.8400      0.00000
     13      13.3163      0.00000
     14      16.0851      0.00000
     15      18.1847      0.00000
     16      18.3697      0.00000

 k-point     7 :       0.4286    0.1429    0.0000
  band No.  band energies     occupation 
      1     -21.6083      1.00000
      2     -21.5890      1.00000
      3     -21.5887      1.00000
      4     -13.1076      1.00000
      5      -2.3830      1.00000
      6      -1.1797      1.00000
      7      -1.0807      1.00000
      8       6.8651      0.00000
      9       9.0569      0.00000
     10       9.6678      0.00000
     11      10.7853      0.00000
     12      13.2475      0.00000
     13      14.9220      0.00000
     14      15.6561      0.00000
     15      16.9265      0.00000
     16      17.3901      0.00000

 k-point     8 :      -0.4286    0.1429   -0.0000
  band No.  band energies     occupation 
      1     -21.6112      1.00000
      2     -21.5906      1.00000
      3     -21.5883      1.00000
      4     -13.0681      1.00000
      5      -2.5364      1.00000
      6      -1.2883      1.00000
      7      -1.0641      1.00000
      8       7.0094      0.00000
      9       9.2786      0.00000
     10       9.7797      0.00000
     11      10.5790      0.00000
     12      14.4853      0.00000
     13      14.5071      0.00000
     14      15.4434      0.00000
     15      16.2861      0.00000
     16      17.6466      0.00000

 k-point     9 :      -0.2857    0.1429    0.0000
  band No.  band energies     occupation 
      1     -21.6058      1.00000
      2     -21.5905      1.00000
      3     -21.5871      1.00000
      4     -13.1423      1.00000
      5      -2.2265      1.00000
      6      -1.2417      1.00000
      7      -0.9627      1.00000
      8       6.7581      0.00000
      9       9.0588      0.00000
     10       9.8160      0.00000
     11      10.7558      0.00000
     12      12.4536      0.00000
     13      14.5626      0.00000
     14      15.7399      0.00000
     15      16.7622      0.00000
     16      18.8138      0.00000

 k-point    10 :      -0.1429    0.1429    0.0000
  band No.  band energies     occupation 
      1     -21.5966      1.00000
      2     -21.5886      1.00000
      3     -21.5861      1.00000
      4     -13.2696      1.00000
      5      -1.6548      1.00000
      6      -1.0309      1.00000
      7      -0.8483      1.00000
      8       5.7561      0.00000
      9       9.1593      0.00000
     10      10.4757      0.00000
     11      11.0647      0.00000
     12      11.4076      0.00000
     13      13.0066      0.00000
     14      16.2149      0.00000
     15      16.5516      0.00000
     16      18.1405      0.00000

 k-point    11 :       0.2857    0.2857   -0.0000
  band No.  band energies     occupation 
      1     -21.6000      1.00000
      2     -21.5906      1.00000
      3     -21.5905      1.00000
      4     -13.1716      1.00000
      5      -1.9750      1.00000
      6      -1.1370      1.00000
      7      -1.1370      1.00000
      8       6.5934      0.00000
      9       8.0975      0.00000
     10       9.8362      0.00000
     11      12.0469      0.00000
     12      12.0469      0.00000
     13      13.5772      0.00000
     14      18.1643      0.00000
     15      18.1644      0.00000
     16      19.2136      0.00000

 k-point    12 :       0.4286    0.2857    0.0000
  band No.  band energies     occupation 
      1     -21.6036      1.00000
      2     -21.5928      1.00000
      3     -21.5913      1.00000
      4     -13.0865      1.00000
      5      -2.2347      1.00000
      6      -1.3685      1.00000
      7      -1.2226      1.00000
      8       7.1447      0.00000
      9       7.9825      0.00000
     10       9.5462      0.00000
     11      12.0536      0.00000
     12      13.0022      0.00000
     13      14.8656      0.00000
     14      16.7769      0.00000
     15      17.3538      0.00000
     16      18.5041      0.00000

 k-point    13 :      -0.4286    0.2857   -0.0000
  band No.  band energies     occupation 
      1     -21.6055      1.00000
      2     -21.5971      1.00000
      3     -21.5906      1.00000
      4     -13.0372      1.00000
      5      -2.2508      1.00000
      6      -1.7338      1.00000
      7      -1.2029      1.00000
      8       7.5799      0.00000
      9       8.4789      0.00000
     10       9.4987      0.00000
     11      11.5759      0.00000
     12      13.0015      0.00000
     13      14.8166      0.00000
     14      16.6059      0.00000
     15      17.4182      0.00000
     16      18.4454      0.00000

 k-point    14 :      -0.2857    0.2857    0.0000
  band No.  band energies     occupation 
      1     -21.6052      1.00000
      2     -21.5968      1.00000
      3     -21.5884      1.00000
      4     -13.0627      1.00000
      5      -2.2042      1.00000
      6      -1.7315      1.00000
      7      -1.0894      1.00000
      8       7.8028      0.00000
      9       8.8108      0.00000
     10       9.0756      0.00000
     11      11.2025      0.00000
     12      13.0763      0.00000
     13      13.9376      0.00000
     14      16.6760      0.00000
     15      17.8687      0.00000
     16      18.5472      0.00000

 k-point    15 :       0.4286    0.4286    0.0000
  band No.  band energies     occupation 
      1     -21.6047      1.00000
      2     -21.5930      1.00000
      3     -21.5929      1.00000
      4     -13.0513      1.00000
      5      -2.3593      1.00000
      6      -1.3228      1.00000
      7      -1.3228      1.00000
      8       6.8272      0.00000
      9       7.4112      0.00000
     10      10.2551      0.00000
     11      13.5690      0.00000
     12      13.5690      0.00000
     13      14.4096      0.00000
     14      16.7896      0.00000
     15      16.8167      0.00000
     16      16.8167      0.00000

 k-point    16 :      -0.4286    0.4286    0.0000
  band No.  band energies     occupation 
      1     -21.6043      1.00000
      2     -21.5964      1.00000
      3     -21.5928      1.00000
      4     -13.0294      1.00000
      5      -2.3196      1.00000
      6      -1.5586      1.00000
      7      -1.3146      1.00000
      8       7.0629      0.00000
      9       7.6686      0.00000
     10      10.2247      0.00000
     11      12.8277      0.00000
     12      13.2737      0.00000
     13      15.7276      0.00000
     14      15.9776      0.00000
     15      16.6844      0.00000
     16      16.9880      0.00000

 k-point    17 :       0.4286    0.2857    0.1429
  band No.  band energies     occupation 
      1     -21.6031      1.00000
      2     -21.5924      1.00000
      3     -21.5886      1.00000
      4     -13.1331      1.00000
      5      -2.1188      1.00000
      6      -1.3361      1.00000
      7      -1.0756      1.00000
      8       7.0680      0.00000
      9       8.4856      0.00000
     10       9.4323      0.00000
     11      11.4810      0.00000
     12      12.2370      0.00000
     13      14.6561      0.00000
     14      16.7996      0.00000
     15      17.6211      0.00000
     16      17.8177      0.00000

 k-point    18 :      -0.4286    0.2857    0.1429
  band No.  band energies     occupation 
      1     -21.6066      1.00000
      2     -21.5948      1.00000
      3     -21.5902      1.00000
      4     -13.0548      1.00000
      5      -2.2975      1.00000
      6      -1.5792      1.00000
      7      -1.1932      1.00000
      8       7.7371      0.00000
      9       8.6668      0.00000
     10       9.1356      0.00000
     11      11.1792      0.00000
     12      13.3743      0.00000
     13      14.7589      0.00000
     14      16.0952      0.00000
     15      17.5697      0.00000
     16      18.0049      0.00000

 k-point    19 :      -0.4286    0.4286    0.1429
  band No.  band energies     occupation 
      1     -21.6037      1.00000
      2     -21.5951      1.00000
      3     -21.5936      1.00000
      4     -13.0374      1.00000
      5      -2.2416      1.00000
      6      -1.5561      1.00000
      7      -1.3861      1.00000
      8       7.4863      0.00000
      9       7.9999      0.00000
     10       9.5935      0.00000
     11      11.8100      0.00000
     12      13.8394      0.00000
     13      15.2021      0.00000
     14      15.9689      0.00000
     15      16.8746      0.00000
     16      18.1825      0.00000

 k-point    20 :      -0.2857    0.4286    0.1429
  band No.  band energies     occupation 
      1     -21.6005      1.00000
      2     -21.6000      1.00000
      3     -21.5927      1.00000
      4     -13.0233      1.00000
      5      -2.0083      1.00000
      6      -1.9449      1.00000
      7      -1.3678      1.00000
      8       7.9953      0.00000
      9       8.5057      0.00000
     10       9.2719      0.00000
     11      10.9755      0.00000
     12      13.8679      0.00000
     13      14.6413      0.00000
     14      16.4362      0.00000
     15      16.9690      0.00000
     16      18.6231      0.00000


--------------------------------------------------------------------------------------------------------


 soft charge-density along one line, spin component           1
         0         1         2         3         4         5         6         7         8         9
 total charge-density along one line
 
 soft charge-density along one line, spin component           2
         0         1         2         3         4         5         6         7         8         9
 total charge-density along one line
 
 pseudopotential strength for first ion, spin component:           1
-25.605  -0.000  -0.000  13.995   0.000   0.000  -0.000   0.000
 -0.000 -25.605  -0.000   0.000  13.995   0.000  -0.000   0.000
 -0.000  -0.000 -25.605   0.000   0.000  13.995   0.000  -0.000
 13.995   0.000   0.000  -2.671  -0.000  -0.000   0.000  -0.000
  0.000  13.995   0.000  -0.000  -2.671  -0.000   0.000  -0.000
  0.000   0.000  13.995  -0.000  -0.000  -2.671  -0.000   0.000
 -0.000  -0.000   0.000   0.000   0.000  -0.000   1.431  -0.024
  0.000   0.000  -0.000  -0.000  -0.000   0.000  -0.024  -0.011
 pseudopotential strength for first ion, spin component:           2
-25.606  -0.000  -0.000  13.996   0.000   0.000  -0.000   0.000
 -0.000 -25.606  -0.000   0.000  13.996   0.000  -0.000   0.000
 -0.000  -0.000 -25.606   0.000   0.000  13.996   0.000  -0.000
 13.996   0.000   0.000  -2.672  -0.000  -0.000   0.000  -0.000
  0.000  13.996   0.000  -0.000  -2.672  -0.000   0.000  -0.000
  0.000   0.000  13.996  -0.000  -0.000  -2.672  -0.000   0.000
 -0.000  -0.000   0.000   0.000   0.000  -0.000   1.431  -0.024
  0.000   0.000  -0.000  -0.000  -0.000   0.000  -0.024  -0.011
 total augmentation occupancy for first ion, spin component:           1
  2.004   0.000  -0.000   0.008   0.000  -0.000   0.000   0.000
  0.000   2.004   0.000   0.000   0.008   0.000   0.000   0.000
 -0.000   0.000   2.004  -0.000   0.000   0.008   0.000   0.000
  0.008   0.000  -0.000   0.022   0.000  -0.000   0.000   0.000
  0.000   0.008   0.000   0.000   0.022   0.000   0.000   0.000
 -0.000   0.000   0.008  -0.000   0.000   0.022   0.000   0.000
  0.000   0.000   0.000   0.000   0.000   0.000   0.370  -0.004
  0.000   0.000   0.000   0.000   0.000   0.000  -0.004   0.000
 total augmentation occupancy for first ion, spin component:           2
  0.000   0.000  -0.000   0.000   0.000  -0.000   0.000   0.000
  0.000   0.000   0.000   0.000   0.000   0.000   0.000   0.000
 -0.000   0.000   0.000  -0.000   0.000   0.000   0.000   0.000
  0.000   0.000  -0.000  -0.000  -0.000   0.000   0.000   0.000
  0.000   0.000   0.000  -0.000  -0.000  -0.000   0.000   0.000
 -0.000   0.000   0.000   0.000  -0.000  -0.000   0.000   0.000
  0.000   0.000   0.000   0.000   0.000   0.000   0.000  -0.000
  0.000   0.000   0.000   0.000   0.000   0.000  -0.000   0.000


------------------------ aborting loop because EDIFF is reached ----------------------------------------


 


 total charge     
 
# of ion     s       p       d       tot
----------------------------------------
  1        0.042   5.978   0.000   6.021
  2        1.587   3.598   0.000   5.185
------------------------------------------------
tot        1.629   9.577   0.000  11.206
 


 magnetization (x)
 
# of ion     s       p       d       tot
----------------------------------------
  1        0.000  -0.000   0.000  -0.000
  2        0.000  -0.000   0.000  -0.000
------------------------------------------------
tot        0.000  -0.000   0.000  -0.000
 
    CHARGE:  cpu time    0.0194: real time    0.0195
    FORLOC:  cpu time    0.0005: real time    0.0005
    FORNL :  cpu time    0.1002: real time    0.1003
    STRESS:  cpu time    0.2878: real time    0.2882
    FORCOR:  cpu time    0.0127: real time    0.0127
    FORHAR:  cpu time    0.0015: real time    0.0015
    MIXING:  cpu time    0.0006: real time    0.0006
    OFIELD:  cpu time    0.0000: real time    0.0000

  FORCE on cell =-STRESS in cart. coord.  units (eV):
  Direction    XX          YY          ZZ          XY          YZ          ZX
  --------------------------------------------------------------------------------------
  Alpha Z    22.89455    22.89455    22.89455
  Ewald    -236.23012  -236.23011  -236.23013     0.00001     0.00001     0.00001
  Hartree    96.02112    96.02114    96.02112     0.00000     0.00001     0.00001
  E(xc)     -64.36386   -64.36388   -64.36381     0.00002     0.00003     0.00004
  Local     -66.56181   -66.56187   -66.56187    -0.00003    -0.00006    -0.00009
  n-local    57.81665    59.92323    61.00679     0.29109    -0.21456    -0.12535
  augment    22.44792    22.44788    22.44808     0.00006     0.00010     0.00014
  Kinetic   161.45638   166.93797   169.99273     0.64053    -0.37794    -0.40278
  Fock        0.00000     0.00000     0.00000     0.00000     0.00000     0.00000
  -------------------------------------------------------------------------------------
  Total      -0.08094    -0.08094    -0.08094     0.00000    -0.00000    -0.00000
  in kB      -2.87628    -2.87628    -2.87628     0.00000    -0.00000    -0.00000
  external pressure =       -2.88 kB  Pullay stress =        0.00 kB


 VOLUME and BASIS-vectors are now :
 -----------------------------------------------------------------------------
  energy-cutoff  :      280.00
  volume of cell :       45.08
      direct lattice vectors                 reciprocal lattice vectors
     3.459762230 -0.000000002  1.997495234     0.289037203 -0.102190070  0.000000000
     1.153254075  3.261895529  1.997495234     0.000000000  0.306570211  0.000000000
    -0.000000004 -0.000000003  3.994989483    -0.144518637 -0.102190095  0.250313550

  length of vectors
     3.994989599  3.994989939  3.994989483     0.306570245  0.306570211  0.306570262


 FORCES acting on ions
    electron-ion (+dipol)            ewald-force                    non-local-force                 convergence-correction
 -----------------------------------------------------------------------------------------------
   -.262E-14 -.334E-14 -.705E-14   0.379E-15 -.935E-16 -.857E-15   -.431E-24 0.478E-24 0.165E-23   0.101E-13 -.829E-14 -.132E-13
   -.522E-12 0.545E-12 -.470E-12   -.104E-14 -.112E-15 0.761E-15   0.782E-23 0.133E-22 0.265E-22   0.303E-14 -.111E-14 0.364E-14
 -----------------------------------------------------------------------------------------------
   -.525E-12 0.542E-12 -.477E-12   -.657E-15 -.205E-15 -.960E-16   0.739E-23 0.138E-22 0.281E-22   0.131E-13 -.939E-14 -.956E-14
 
 
 POSITION                                       TOTAL-FORCE (eV/Angst)
 -----------------------------------------------------------------------------------
      0.00000      0.00000      0.00000        -0.000000      0.000000      0.000000
      2.30651      1.63095      3.99499         0.000000     -0.000000     -0.000000
 -----------------------------------------------------------------------------------
    total drift:                               -0.000000      0.000000     -0.000000


--------------------------------------------------------------------------------------------------------



  FREE ENERGIE OF THE ION-ELECTRON SYSTEM (eV)
  ---------------------------------------------------
  free  energy   TOTEN  =        -6.77199823 eV

  energy  without entropy=       -6.77199823  energy(sigma->0) =       -6.77199823
 


--------------------------------------------------------------------------------------------------------


    POTLOK:  cpu time    0.0186: real time    0.0186


--------------------------------------------------------------------------------------------------------


 stress matrix after NEB project (eV)
     -0.08094     -0.00000     -0.00000
      0.00000     -0.08094     -0.00000
     -0.00000     -0.00000     -0.08094
  FORCES: max atom, RMS     0.000000    0.000000
  FORCE total and by dimension    0.000000    0.000000
  Stress total and by dimension    0.140189    0.080938
     LOOP+:  cpu time    5.3617: real time    5.7541
    4ORBIT:  cpu time    0.0000: real time    0.0000
 


 total charge     
 
# of ion     s       p       d       tot
----------------------------------------
  1        0.042   5.978   0.000   6.021
  2        1.587   3.598   0.000   5.185
------------------------------------------------
tot        1.629   9.577   0.000  11.206
 


 magnetization (x)
 
# of ion     s       p       d       tot
----------------------------------------
  1        0.000  -0.000   0.000  -0.000
  2        0.000  -0.000   0.000  -0.000
------------------------------------------------
tot        0.000  -0.000   0.000  -0.000
 
 BZINTS: Fermi energy: -0.694762; 14.000000 electrons
         Band energy:-165.136296;  BLOECHL correction:  0.000000

 total amount of memory used by VASP on root node    33308. kBytes
========================================================================

   base      :      30000. kBytes
   nonlr-proj:        939. kBytes
   fftplans  :        304. kBytes
   grid      :       1695. kBytes
   one-center:         12. kBytes
   wavefun   :        358. kBytes
 
  
  
 General timing and accounting informations for this job:
 ========================================================
  
                  Total CPU time used (sec):        7.068
                            User time (sec):        6.592
                          System time (sec):        0.477
                         Elapsed time (sec):        9.132
  
                   Maximum memory used (kb):       55232.
                   Average memory used (kb):           0.
  
                          Minor page faults:        18410
                          Major page faults:           11
                 Voluntary context switches:          918
