/*--------------------------------*- C++ -*----------------------------------*\
| =========                 |                                                 |
| \\      /  F ield         | OpenFOAM: The Open Source CFD Toolbox           |
|  \\    /   O peration     | Version:  v2012                                 |
|   \\  /    A nd           | Website:  www.openfoam.com                      |
|    \\/     M anipulation  |                                                 |
\*---------------------------------------------------------------------------*/
FoamFile
{
    version     2.0;
    format      ascii;
    class       volScalarField;
    location    "0.25";
    object      p;
}
// * * * * * * * * * * * * * * * * * * * * * * * * * * * * * * * * * * * * * //

dimensions      [0 2 -2 0 0 0 0];


internalField   nonuniform List<scalar> 
1250
(
0.0372112
0.0438255
0.0503219
0.0566107
0.0626033
0.0682138
0.0733603
0.0779667
0.0819635
0.0852903
0.0878976
0.0897482
0.09082
0.0911076
0.0906254
0.0894097
0.0875223
0.0850542
0.0821303
0.0789154
0.0756205
0.0725092
0.0699087
0.0682258
0.0677181
0.0369124
0.0428885
0.0487576
0.0544389
0.0598532
0.064924
0.0695788
0.0737505
0.0773787
0.0804116
0.0828077
0.0845372
0.0855842
0.0859483
0.0856471
0.0847179
0.0832207
0.0812399
0.0788881
0.0763081
0.0736755
0.0711972
0.0691128
0.0677142
0.0672108
0.0366737
0.042174
0.0475762
0.0528066
0.0577928
0.0624652
0.0667579
0.0706104
0.0739686
0.0767865
0.0790278
0.080667
0.0816916
0.0821036
0.0819207
0.0811788
0.0799329
0.0782591
0.076256
0.0740453
0.0717717
0.0696009
0.0677172
0.0663127
0.0655314
0.0364699
0.0416101
0.0466602
0.0515514
0.0562167
0.0605914
0.0646146
0.0682302
0.0713883
0.0740467
0.0761721
0.0777413
0.0787431
0.0791794
0.0790665
0.0784363
0.0773377
0.075837
0.0740186
0.0719844
0.0698525
0.0677584
0.065847
0.0642125
0.0629164
0.036271
0.0411136
0.0458734
0.050486
0.0548886
0.0590205
0.0628244
0.0662478
0.0692439
0.0717727
0.0738028
0.0753121
0.0762894
0.0767352
0.0766631
0.0761002
0.0750882
0.0736833
0.0719559
0.0699894
0.0678781
0.0657323
0.0636655
0.0616742
0.0597318
0.0360685
0.0406744
0.0452041
0.049597
0.0537933
0.0577355
0.0613691
0.0646439
0.0675149
0.0699436
0.0718992
0.0733596
0.0743125
0.0747563
0.0747007
0.0741676
0.0731912
0.0718177
0.0701047
0.0681186
0.0659336
0.0636401
0.061327
0.0589003
0.0562538
0.0358534
0.0402831
0.0446428
0.0488745
0.0529209
0.0567266
0.0602388
0.0634086
0.0661921
0.0685511
0.0704545
0.0718791
0.0728107
0.0732446
0.0731865
0.0726526
0.0716695
0.0702743
0.0685127
0.0664371
0.0641046
0.0615908
0.0589673
0.0560591
0.0526924
0.0356141
0.039925
0.0441717
0.048298
0.0522483
0.0559682
0.0594062
0.0625136
0.0652466
0.0675664
0.0694409
0.0708449
0.0717617
0.072183
0.0721099
0.0715528
0.0705314
0.0690739
0.0672164
0.0649988
0.0624649
0.05968
0.0567034
0.05329
0.0492075
0.0353381
0.0395852
0.0437736
0.0478483
0.0517544
0.0554381
0.0588479
0.0619351
0.0646547
0.0669669
0.0688375
0.0702391
0.0711514
0.0715624
0.0714683
0.0708739
0.069792
0.0682434
0.0662553
0.0638578
0.0610843
0.0579929
0.0546362
0.0507063
0.045921
0.0350118
0.0392487
0.0434324
0.0475081
0.0514212
0.0551178
0.0585456
0.0616549
0.0643995
0.0667374
0.0686319
0.0700523
0.0709749
0.0713832
0.0712685
0.07063
0.0694742
0.0678151
0.0656725
0.0630686
0.0600285
0.0566068
0.0528521
0.048401
0.0429263
0.0346207
0.0389003
0.0431321
0.047261
0.0512321
0.0549908
0.0584835
0.0616589
0.0644684
0.0668677
0.0688167
0.0702812
0.0712333
0.0716519
0.0715231
0.0708407
0.0696053
0.0678247
0.0655125
0.0626845
0.0593597
0.0555912
0.0514267
0.0464515
0.0402976
0.034149
0.0385238
0.0428562
0.0470909
0.0511716
0.0550425
0.0586482
0.0619351
0.0648521
0.0673512
0.069389
0.070927
0.0719326
0.0723799
0.0722498
0.0715302
0.0702165
0.0683108
0.0658213
0.0627586
0.0591374
0.0550107
0.0504278
0.0449253
0.0380966
0.0335794
0.0381022
0.0425884
0.0469817
0.0512246
0.0552592
0.0590279
0.0624743
0.0655439
0.0681849
0.0703497
0.0719951
0.0730835
0.0735834
0.0734704
0.072727
0.0713428
0.0693149
0.0666468
0.0633447
0.0594199
0.0549272
0.0499183
0.0438832
0.0363775
0.0328934
0.0376173
0.0423113
0.0469174
0.0513765
0.0556282
0.0596123
0.0632689
0.0665397
0.0693686
0.0717031
0.0734947
0.0747002
0.0752827
0.0752115
0.0744635
0.0730229
0.0708817
0.0680391
0.0644975
0.0602658
0.0554013
0.0499593
0.0433832
0.0351913
0.0320709
0.0370501
0.0420068
0.0468815
0.0516126
0.0561373
0.0603918
0.0643127
0.0678371
0.0709042
0.0734558
0.0754378
0.0768009
0.0775016
0.0775031
0.0767762
0.0752995
0.0730596
0.0700518
0.0662749
0.0617358
0.056495
0.0506121
0.0434834
0.034589
0.0310903
0.0363802
0.0416562
0.0468568
0.051918
0.056774
0.0613574
0.0656004
0.0694352
0.0727955
0.0756172
0.0778396
0.0794066
0.0802678
0.0803795
0.0797059
0.0782192
0.0759012
0.0727423
0.0687383
0.0638939
0.0582734
0.0519411
0.0442446
0.0346244
0.0299288
0.035586
0.0412395
0.0468254
0.0522774
0.0575261
0.0625002
0.0671271
0.0713339
0.0750479
0.0781984
0.0807175
0.0825415
0.0836124
0.0838788
0.0832974
0.0818339
0.0794639
0.0761733
0.0719541
0.0668091
0.0608063
0.0540152
0.0457322
0.0353566
0.0285627
0.0346453
0.040736
0.046769
0.0526748
0.0583808
0.0638113
0.0688887
0.0735339
0.0776678
0.0812122
0.0840913
0.0862328
0.0875701
0.0880432
0.0876006
0.0862002
0.0838109
0.0804134
0.0759953
0.070557
0.0641705
0.0569103
0.0480188
0.0368515
0.0269672
0.0335347
0.0401244
0.0466683
0.053094
0.0593252
0.0652818
0.0708807
0.0760365
0.0806628
0.0846731
0.0879828
0.0905103
0.0921791
0.0929195
0.0926703
0.0913808
0.0890122
0.0855385
0.0809425
0.0752215
0.0684512
0.060711
0.0511857
0.0391845
0.0251177
0.032231
0.039383
0.0465038
0.0535181
0.0603459
0.0669025
0.073099
0.0788433
0.084041
0.0885967
0.092416
0.0954067
0.0974812
0.0985587
0.0985671
0.0974452
0.0951451
0.0916331
0.0868857
0.0808963
0.0737438
0.0655126
0.0553254
0.0424419
0.02299
0.030711
0.0384904
0.046256
0.0539303
0.0614294
0.068664
0.0755393
0.081956
0.0878113
0.093
0.0974167
0.100957
0.103522
0.105017
0.105358
0.10447
0.102296
0.0987913
0.0939257
0.0876869
0.0801565
0.0714235
0.0605435
0.0467234
0.0205612
0.028953
0.0374258
0.045906
0.0543139
0.0625621
0.0705569
0.0781973
0.0853767
0.0919831
0.0979008
0.103012
0.107201
0.110351
0.112356
0.113115
0.11254
0.11056
0.107119
0.102176
0.0957124
0.0878119
0.0785672
0.066961
0.052144
0.0178113
0.0269373
0.0361702
0.0454361
0.0546531
0.0637312
0.0725721
0.081069
0.0891075
0.0965662
0.103318
0.109233
0.114178
0.118023
0.120643
0.12192
0.12175
0.120044
0.116733
0.111764
0.105108
0.0968499
0.087085
0.0747173
0.0588365
0.0147244
0.0246476
0.0347077
0.0448307
0.0549338
0.0649246
0.0747009
0.0841504
0.0931508
0.101571
0.109272
0.116108
0.121932
0.126594
0.12995
0.131862
0.132204
0.130869
0.127769
0.122836
0.116029
0.10743
0.0971392
0.0839725
0.0669544
0.01129
0.0220726
0.0330261
0.0440775
0.0551442
0.0661322
0.0769361
0.0874384
0.0975094
0.107008
0.115782
0.123672
0.13051
0.136127
0.140357
0.143037
0.144017
0.143167
0.140375
0.135555
0.128649
0.119737
0.108917
0.0949117
0.0766753
0.00750552
0.0192077
0.0311191
0.043169
0.0552761
0.0673462
0.0792717
0.0909307
0.102186
0.112888
0.12287
0.131956
0.139959
0.146688
0.151949
0.155551
0.157318
0.157087
0.154721
0.150108
0.14317
0.133979
0.122633
0.107749
0.0882047
0.00337792
0.0160568
0.0289875
0.0421035
0.0553262
0.0685625
0.0817043
0.0946263
0.107186
0.119222
0.130557
0.140996
0.150332
0.158346
0.164816
0.169521
0.172246
0.172795
0.170998
0.166708
0.159823
0.150402
0.138538
0.122733
0.101781
-0.00107403
0.0126341
0.0266413
0.0408869
0.0552968
0.0697814
0.0842333
0.0985257
0.112511
0.12602
0.138862
0.150825
0.161677
0.171174
0.179058
0.18507
0.188957
0.190478
0.189421
0.185598
0.178873
0.169287
0.156923
0.140152
0.117681
-0.00581756
0.00896649
0.0241012
0.0395339
0.0551976
0.0710081
0.0868613
0.102631
0.118167
0.133293
0.147805
0.161475
0.174047
0.185245
0.194775
0.202334
0.20762
0.210342
0.210233
0.207056
0.200626
0.190961
0.178126
0.160346
0.136229
-0.0108041
0.00509472
0.0213999
0.0380696
0.0550462
0.0722539
0.0895948
0.106946
0.124157
0.141047
0.157402
0.172976
0.187489
0.200633
0.212072
0.221454
0.22842
0.232616
0.23371
0.231398
0.225438
0.215808
0.202547
0.183712
0.157805
-0.0159671
0.0010753
0.0185838
0.0365298
0.0548687
0.073536
0.0924436
0.111476
0.130484
0.149288
0.167664
0.185351
0.202047
0.217408
0.231055
0.24258
0.251555
0.257553
0.260161
0.258991
0.253722
0.244277
0.230657
0.210724
0.182857
-0.021222
-0.00301907
0.0157128
0.0349619
0.0546998
0.0748774
0.09542
0.116223
0.137147
0.158011
0.178591
0.198614
0.217754
0.235633
0.251826
0.265861
0.277236
0.285432
0.289935
0.290253
0.28596
0.276903
0.263022
0.241947
0.211922
-0.0264651
-0.00709962
0.0128605
0.0334238
0.0545819
0.0763052
0.0985374
0.12119
0.144137
0.167206
0.190175
0.212763
0.234626
0.255355
0.274475
0.291448
0.305682
0.316552
0.323423
0.325666
0.322718
0.314319
0.300317
0.278065
0.245644
-0.0315757
-0.011063
0.0101123
0.0319822
0.0545629
0.0778486
0.101807
0.126372
0.151437
0.176845
0.202384
0.227773
0.252657
0.276599
0.299074
0.319475
0.337112
0.351235
0.361059
0.365783
0.364664
0.357287
0.34337
0.319913
0.284806
-0.0364185
-0.0147942
0.00756178
0.0307092
0.0546923
0.0795348
0.105234
0.131752
0.159011
0.186879
0.215161
0.243589
0.271804
0.299349
0.325659
0.350052
0.371735
0.389813
0.403319
0.411237
0.412585
0.406731
0.393194
0.368526
0.330377
-0.0408486
-0.0181718
0.00530643
0.029677
0.0550167
0.0813835
0.10881
0.137297
0.1668
0.197226
0.22841
0.260107
0.291971
0.323539
0.354213
0.383244
0.409729
0.432616
0.450718
0.462749
0.467413
0.463774
0.451054
0.42521
0.383573
-0.0447186
-0.0210748
0.00343996
0.0289509
0.0555716
0.0833992
0.112509
0.142945
0.174712
0.207763
0.241982
0.277163
0.312993
0.349021
0.384636
0.419037
0.451215
0.479944
0.503789
0.521127
0.530252
0.529798
0.518548
0.491636
0.445951
-0.0478874
-0.0233916
0.00204362
0.0285807
0.0563733
0.0855625
0.116272
0.148599
0.182607
0.218311
0.255659
0.294509
0.334605
0.375538
0.416712
0.4573
0.496205
0.532028
0.563057
0.587259
0.602398
0.606512
0.597721
0.569992
0.519552
-0.050232
-0.0250314
0.0011755
0.0285898
0.057408
0.0878191
0.120001
0.154113
0.190288
0.228617
0.269135
0.31179
0.356415
0.402682
0.450055
0.497725
0.544544
0.588963
0.628977
0.662082
0.685362
0.696034
0.691232
0.663202
0.607123
-0.0516594
-0.0259353
0.000859004
0.0289643
0.0586212
0.0900697
0.123546
0.159279
0.197482
0.238341
0.281996
0.328518
0.377867
0.42985
0.484051
0.539746
0.59581
0.6506
0.701841
0.746508
0.780854
0.800987
0.802578
0.775273
0.712489
-0.05212
-0.0260893
0.00107138
0.029642
0.0599074
0.0921594
0.126696
0.163821
0.203837
0.24704
0.2937
0.344041
0.398203
0.456185
0.517775
0.582438
0.649184
0.71639
0.781603
0.841285
0.890724
0.924585
0.936407
0.911838
0.841196
-0.051619
-0.0255349
0.00173407
0.030504
0.0611022
0.0938709
0.129171
0.167382
0.208905
0.254157
0.303561
0.357528
0.416424
0.480521
0.549911
0.624388
0.703269
0.785156
0.867612
0.946723
1.01678
1.07066
1.09891
1.08101
1.00166
-0.0502263
-0.0243763
0.00270663
0.0313703
0.0619795
0.0949233
0.130621
0.16953
0.21215
0.259026
0.31075
0.367951
0.431273
0.501336
0.578663
0.663551
0.755873
0.854772
0.958204
1.06224
1.16037
1.24355
1.29831
1.29476
1.20736
-0.0480807
-0.0227835
0.00378596
0.0320002
0.0622546
0.094977
0.130639
0.169768
0.212957
0.260882
0.314307
0.374099
0.441222
0.516721
0.601675
0.697094
0.803727
0.921723
1.05005
1.18553
1.32154
1.44747
1.5451
1.57103
1.48127
-0.0453875
-0.0209887
0.00471094
0.0320992
0.0615913
0.0936434
0.128767
0.167545
0.210653
0.258882
0.313164
0.374601
0.444496
0.52437
0.615972
0.721236
0.842153
0.980483
1.13715
1.31103
1.49708
1.68468
1.85151
1.93684
1.86472
-0.0424077
-0.0192712
0.00518162
0.0313418
0.0596317
0.0905206
0.124542
0.162315
0.204573
0.252195
0.306249
0.368048
0.439209
0.521737
0.618104
0.731325
0.864986
1.02314
1.2099
1.42826
1.67794
1.95232
2.22902
2.43089
2.43193
-0.0394419
-0.0179216
0.00491539
0.0294504
0.0560978
0.085322
0.117657
0.153731
0.194301
0.240291
0.292854
0.353445
0.423928
0.506716
0.604956
0.722777
0.865578
1.04032
1.25569
1.52173
1.84814
2.23976
2.6837
3.10337
3.31484
-0.036809
-0.0172384
0.00363269
0.0261619
0.0507398
0.077806
0.10787
0.141537
0.179542
0.2228
0.272467
0.330038
0.397481
0.477431
0.573491
0.690663
0.836002
1.01953
1.25553
1.56431
1.97281
2.50868
3.1901
4.01477
4.80843
-0.0347691
-0.0176884
0.000654275
0.0205743
0.0424163
0.0665688
0.0934822
0.123693
0.157855
0.196785
0.241526
0.293435
0.354327
0.426684
0.513993
0.621299
0.756123
0.930006
1.16132
1.48062
1.9368
2.59636
3.5721
5.1944
7.6784
-0.0334243
-0.0195318
-0.00443994
0.0121035
0.0303727
0.0506751
0.0733644
0.0988585
0.127663
0.160402
0.197867
0.24108
0.291393
0.350647
0.421428
0.50751
0.614672
0.752286
0.936879
1.20041
1.60434
2.26055
3.4718
6.358
12.4032
)
;

boundaryField
{
    movingWall
    {
        type            zeroGradient;
    }
    fixedWalls
    {
        type            zeroGradient;
    }
    frontAndBack
    {
        type            empty;
    }
    procBoundary1to0
    {
        type            processor;
        value           nonuniform List<scalar> 
50
(
0.0305692
0.0309103
0.0311497
0.0313084
0.0314099
0.0314474
0.0314121
0.0312954
0.0310872
0.0307756
0.0303468
0.0297856
0.0290748
0.0281953
0.0271263
0.0258453
0.0243284
0.0225506
0.0204859
0.0181085
0.0153933
0.0123169
0.00885905
0.00500401
0.000742532
-0.00392623
-0.00899242
-0.0144331
-0.0202099
-0.0262667
-0.0325279
-0.0388973
-0.0452573
-0.0514705
-0.0573821
-0.0628245
-0.0676244
-0.0716118
-0.0746313
-0.0765554
-0.0772982
-0.0768287
-0.0751818
-0.0724648
-0.0688565
-0.0646002
-0.0600073
-0.055418
-0.0508866
-0.0463573
)
;
    }
}


// ************************************************************************* //
