/*--------------------------------*- C++ -*----------------------------------*\
| =========                 |                                                 |
| \\      /  F ield         | OpenFOAM: The Open Source CFD Toolbox           |
|  \\    /   O peration     | Version:  v2012                                 |
|   \\  /    A nd           | Website:  www.openfoam.com                      |
|    \\/     M anipulation  |                                                 |
\*---------------------------------------------------------------------------*/
FoamFile
{
    version     2.0;
    format      ascii;
    class       surfaceScalarField;
    location    "0.25";
    object      phi;
}
// * * * * * * * * * * * * * * * * * * * * * * * * * * * * * * * * * * * * * //

dimensions      [0 3 -1 0 0 0 0];
oriented        oriented;


internalField   nonuniform List<scalar> 
2425
(
-1.40515e-07
-5.48534e-10
-1.38738e-07
-1.77703e-09
-1.35751e-07
-2.98716e-09
-1.31589e-07
-4.16159e-09
-1.26307e-07
-5.2826e-09
-1.19975e-07
-6.33211e-09
-1.12683e-07
-7.29184e-09
-1.04539e-07
-8.14349e-09
-9.56703e-08
-8.86895e-09
-8.62197e-08
-9.45054e-09
-7.63484e-08
-9.87131e-09
-6.6233e-08
-1.01153e-08
-5.60651e-08
-1.0168e-08
-4.60485e-08
-1.00165e-08
-3.6398e-08
-9.65051e-09
-2.73358e-08
-9.06228e-09
-1.90877e-08
-8.24805e-09
-1.18784e-08
-7.20928e-09
-5.9231e-09
-5.95531e-09
-1.41452e-09
-4.50855e-09
1.50063e-09
-2.91512e-09
2.76588e-09
-1.26524e-09
2.4975e-09
2.68403e-10
1.1748e-09
1.3227e-09
1.1748e-09
-3.96375e-07
-2.08407e-09
-3.91497e-07
-6.65527e-09
-3.83329e-07
-1.11545e-08
-3.71974e-07
-1.55169e-08
-3.5758e-07
-1.96764e-08
-3.40346e-07
-2.35662e-08
-3.20519e-07
-2.7119e-08
-2.98395e-07
-3.02678e-08
-2.74317e-07
-3.2947e-08
-2.48674e-07
-3.50929e-08
-2.219e-07
-3.66452e-08
-1.94468e-07
-3.75481e-08
-1.66883e-07
-3.77521e-08
-1.39685e-07
-3.72153e-08
-1.13429e-07
-3.59064e-08
-8.86844e-08
-3.38067e-08
-6.60175e-08
-3.09149e-08
-4.59738e-08
-2.7253e-08
-2.90524e-08
-2.28766e-08
-1.5669e-08
-1.78919e-08
-6.09782e-09
-1.24863e-08
-3.81735e-10
-6.98129e-09
1.80513e-09
-1.91845e-09
1.33461e-09
1.79323e-09
2.50941e-09
-6.3176e-07
-4.50327e-09
-6.24161e-07
-1.42547e-08
-6.11467e-07
-2.3848e-08
-5.93839e-07
-3.31451e-08
-5.7151e-07
-4.20056e-08
-5.44788e-07
-5.02876e-08
-5.14058e-07
-5.78495e-08
-4.79775e-07
-6.45505e-08
-4.42469e-07
-7.02532e-08
-4.02736e-07
-7.48257e-08
-3.61237e-07
-7.81438e-08
-3.18691e-07
-8.00943e-08
-2.75865e-07
-8.05784e-08
-2.33565e-07
-7.95158e-08
-1.92621e-07
-7.68498e-08
-1.53874e-07
-7.25542e-08
-1.18147e-07
-6.66417e-08
-8.62219e-08
-5.91778e-08
-5.87991e-08
-5.02994e-08
-3.64446e-08
-4.02464e-08
-1.95202e-08
-2.94107e-08
-8.08618e-09
-1.84153e-08
-1.78088e-09
-8.22374e-09
3.29973e-10
-3.17625e-10
2.83938e-09
-8.50423e-07
-7.70804e-09
-8.40424e-07
-2.42538e-08
-8.23745e-07
-4.05268e-08
-8.00596e-07
-5.62934e-08
-7.71285e-07
-7.1317e-08
-7.36214e-07
-8.53589e-08
-6.95882e-07
-9.81814e-08
-6.50882e-07
-1.0955e-07
-6.01901e-07
-1.19235e-07
-5.49708e-07
-1.27019e-07
-4.95155e-07
-1.32697e-07
-4.39162e-07
-1.36087e-07
-3.82712e-07
-1.37029e-07
-3.2683e-07
-1.35398e-07
-2.72566e-07
-1.31114e-07
-2.20975e-07
-1.24145e-07
-1.73087e-07
-1.1453e-07
-1.29869e-07
-1.02396e-07
-9.21801e-08
-8.7988e-08
-6.0719e-08
-7.17074e-08
-3.59501e-08
-5.41796e-08
-1.80208e-08
-3.63445e-08
-6.66861e-09
-1.95759e-08
-1.128e-09
-5.85823e-09
1.71138e-09
-1.05543e-06
-1.16038e-08
-1.0433e-06
-3.63782e-08
-1.02309e-06
-6.07408e-08
-9.95037e-07
-8.43441e-08
-9.59518e-07
-1.06836e-07
-9.17012e-07
-1.27864e-07
-8.68118e-07
-1.47076e-07
-8.13543e-07
-1.64125e-07
-7.54102e-07
-1.78675e-07
-6.90713e-07
-1.90408e-07
-6.24383e-07
-1.99026e-07
-5.56205e-07
-2.04265e-07
-4.87336e-07
-2.05898e-07
-4.18982e-07
-2.03753e-07
-3.52376e-07
-1.97719e-07
-2.88753e-07
-1.87768e-07
-2.29311e-07
-1.73971e-07
-1.75179e-07
-1.56529e-07
-1.27364e-07
-1.35803e-07
-8.67001e-08
-1.12371e-07
-5.37878e-08
-8.70919e-08
-2.89262e-08
-6.12061e-08
-1.20545e-08
-3.64477e-08
-2.70748e-09
-1.52052e-08
-9.96088e-10
-1.24941e-06
-1.60977e-08
-1.23539e-06
-5.03917e-08
-1.21202e-06
-8.41155e-08
-1.17957e-06
-1.16792e-07
-1.13847e-06
-1.47938e-07
-1.08926e-06
-1.77072e-07
-1.03263e-06
-2.03711e-07
-9.69368e-07
-2.27384e-07
-9.00409e-07
-2.47634e-07
-8.26788e-07
-2.64029e-07
-7.49648e-07
-2.76167e-07
-6.70219e-07
-2.83693e-07
-5.8981e-07
-2.86307e-07
-5.09781e-07
-2.83782e-07
-4.31521e-07
-2.75979e-07
-3.5642e-07
-2.62869e-07
-2.85832e-07
-2.4456e-07
-2.21035e-07
-2.21326e-07
-1.63188e-07
-1.9365e-07
-1.1328e-07
-1.62279e-07
-7.20789e-08
-1.28293e-07
-4.00903e-08
-9.31948e-08
-1.752e-08
-5.90179e-08
-4.27199e-09
-2.84532e-08
-5.26807e-09
-1.43462e-06
-2.10964e-08
-1.41892e-06
-6.60886e-08
-1.3927e-06
-1.10337e-07
-1.35627e-06
-1.53222e-07
-1.31009e-06
-1.94118e-07
-1.25477e-06
-2.32398e-07
-1.19104e-06
-2.67441e-07
-1.11978e-06
-2.98635e-07
-1.04203e-06
-3.25392e-07
-9.58903e-07
-3.47153e-07
-8.71666e-07
-3.63404e-07
-7.81671e-07
-3.73689e-07
-6.90351e-07
-3.77626e-07
-5.99205e-07
-3.74928e-07
-5.09761e-07
-3.65422e-07
-4.23554e-07
-3.49076e-07
-3.42085e-07
-3.26028e-07
-2.66787e-07
-2.96624e-07
-1.98979e-07
-2.61458e-07
-1.39826e-07
-2.21432e-07
-9.02987e-08
-1.7782e-07
-5.11427e-08
-1.32351e-07
-2.28681e-08
-8.72925e-08
-5.76782e-09
-4.55535e-08
-1.10359e-08
-1.61297e-06
-2.65042e-08
-1.59577e-06
-8.32849e-08
-1.56697e-06
-1.39138e-07
-1.5269e-06
-1.93292e-07
-1.47605e-06
-2.44966e-07
-1.41507e-06
-2.93379e-07
-1.34475e-06
-3.37758e-07
-1.26605e-06
-3.77342e-07
-1.18004e-06
-4.11399e-07
-1.08796e-06
-4.39235e-07
-9.91149e-07
-4.60212e-07
-8.91075e-07
-4.73763e-07
-7.89286e-07
-4.79416e-07
-6.87401e-07
-4.76813e-07
-5.87084e-07
-4.6574e-07
-4.90007e-07
-4.46152e-07
-3.97825e-07
-4.18211e-07
-3.12128e-07
-3.8232e-07
-2.34413e-07
-3.39173e-07
-1.66041e-07
-2.89804e-07
-1.08209e-07
-2.35653e-07
-6.19283e-08
-1.78631e-07
-2.80279e-08
-1.21193e-07
-7.18258e-09
-6.63988e-08
-1.82185e-08
-1.78603e-06
-3.22209e-08
-1.7675e-06
-1.01811e-07
-1.73635e-06
-1.70286e-07
-1.69293e-06
-2.36709e-07
-1.63776e-06
-3.00141e-07
-1.5715e-06
-3.59636e-07
-1.495e-06
-4.14257e-07
-1.40926e-06
-4.63087e-07
-1.31542e-06
-5.05238e-07
-1.21478e-06
-5.3987e-07
-1.10879e-06
-5.66209e-07
-9.9898e-07
-5.83569e-07
-8.8702e-07
-5.91375e-07
-7.74646e-07
-5.89188e-07
-6.63648e-07
-5.76738e-07
-5.55842e-07
-5.53958e-07
-4.53036e-07
-5.21017e-07
-3.56995e-07
-4.78361e-07
-2.69405e-07
-4.26763e-07
-1.91843e-07
-3.67366e-07
-1.2575e-07
-3.01746e-07
-7.2418e-08
-2.31963e-07
-3.29968e-08
-1.60614e-07
-8.52342e-09
-9.08722e-08
-2.67419e-08
-1.95509e-06
-3.81402e-08
-1.93539e-06
-1.21506e-07
-1.90211e-06
-2.03567e-07
-1.8556e-06
-2.8322e-07
-1.79639e-06
-3.59354e-07
-1.72517e-06
-4.30852e-07
-1.64282e-06
-4.96608e-07
-1.55037e-06
-5.55535e-07
-1.44903e-06
-6.06581e-07
-1.34015e-06
-6.48749e-07
-1.22524e-06
-6.81118e-07
-1.10594e-06
-7.02867e-07
-9.84013e-07
-7.13305e-07
-8.61301e-07
-7.119e-07
-7.39729e-07
-6.98311e-07
-6.21258e-07
-6.72429e-07
-5.07861e-07
-6.34414e-07
-4.01486e-07
-5.84736e-07
-3.04026e-07
-5.24223e-07
-2.17287e-07
-4.54105e-07
-1.4297e-07
-3.76063e-07
-8.26542e-08
-2.92279e-07
-3.7807e-08
-2.05461e-07
-9.80578e-09
-1.18873e-07
-3.65476e-08
-2.12118e-06
-4.41474e-08
-2.10048e-06
-1.4221e-07
-2.06526e-06
-2.38782e-07
-2.01589e-06
-3.32589e-07
-1.9529e-06
-4.22343e-07
-1.877e-06
-5.06751e-07
-1.78908e-06
-5.84528e-07
-1.69021e-06
-6.54408e-07
-1.58163e-06
-7.15164e-07
-1.46475e-06
-7.65632e-07
-1.34114e-06
-8.04728e-07
-1.21252e-06
-8.31486e-07
-1.08074e-06
-8.45079e-07
-9.47779e-07
-8.44864e-07
-8.15676e-07
-8.30413e-07
-6.8655e-07
-8.01555e-07
-5.62545e-07
-7.58419e-07
-4.45805e-07
-7.01476e-07
-3.38443e-07
-6.31585e-07
-2.42511e-07
-5.50037e-07
-1.59978e-07
-4.58596e-07
-9.27176e-08
-3.59539e-07
-4.25078e-08
-2.55671e-07
-1.10482e-08
-1.50333e-07
-4.75958e-08
-2.28506e-06
-5.01189e-08
-2.26351e-06
-1.63758e-07
-2.22656e-06
-2.75732e-07
-2.17456e-06
-3.8459e-07
-2.10804e-06
-4.88863e-07
-2.02772e-06
-5.87076e-07
-1.93449e-06
-6.77756e-07
-1.82944e-06
-7.59453e-07
-1.71385e-06
-8.30755e-07
-1.58917e-06
-8.90313e-07
-1.45703e-06
-9.36871e-07
-1.31922e-06
-9.69296e-07
-1.17769e-06
-9.86611e-07
-1.03451e-06
-9.8804e-07
-8.9188e-07
-9.73045e-07
-7.52064e-07
-9.41371e-07
-6.17393e-07
-8.9309e-07
-4.90217e-07
-8.28651e-07
-3.72884e-07
-7.48919e-07
-2.67702e-07
-6.5522e-07
-1.76919e-07
-5.49379e-07
-1.02708e-07
-4.3375e-07
-4.71557e-08
-3.11224e-07
-1.22697e-08
-1.85219e-07
-5.98655e-08
-2.44724e-06
-5.59209e-08
-2.42502e-06
-1.85979e-07
-2.38654e-06
-3.14212e-07
-2.33214e-06
-4.3899e-07
-2.26234e-06
-5.58662e-07
-2.17785e-06
-6.71566e-07
-2.07957e-06
-7.76036e-07
-1.9686e-06
-8.70426e-07
-1.84622e-06
-9.53129e-07
-1.71394e-06
-1.0226e-06
-1.57342e-06
-1.07739e-06
-1.42653e-06
-1.11619e-06
-1.2753e-06
-1.13784e-06
-1.12193e-06
-1.14141e-06
-9.6874e-07
-1.12623e-06
-8.1817e-07
-1.09194e-06
-6.7274e-07
-1.03852e-06
-5.3502e-07
-9.6637e-07
-4.07603e-07
-8.76336e-07
-2.93067e-07
-7.69755e-07
-1.93952e-07
-6.48493e-07
-1.12734e-07
-5.14968e-07
-5.18091e-08
-3.72148e-07
-1.3489e-08
-2.23539e-07
-7.33545e-08
-2.60798e-06
-6.14089e-08
-2.58527e-06
-2.08688e-07
-2.54548e-06
-3.54001e-07
-2.48893e-06
-4.95542e-07
-2.41612e-06
-6.31476e-07
-2.32774e-06
-7.59946e-07
-2.22468e-06
-8.79093e-07
-2.10804e-06
-9.87065e-07
-1.97912e-06
-1.08205e-06
-1.83943e-06
-1.16229e-06
-1.6907e-06
-1.22613e-06
-1.53484e-06
-1.27204e-06
-1.37399e-06
-1.2987e-06
-1.21043e-06
-1.30497e-06
-1.04665e-06
-1.29002e-06
-8.85237e-07
-1.25335e-06
-7.28929e-07
-1.19483e-06
-5.80521e-07
-1.11478e-06
-4.42866e-07
-1.01399e-06
-3.18825e-07
-8.93796e-07
-2.11241e-07
-7.56078e-07
-1.22903e-07
-6.03306e-07
-5.65256e-08
-4.38526e-07
-1.47238e-08
-2.65341e-07
-8.80783e-08
-2.76729e-06
-6.64279e-08
-2.74429e-06
-2.31685e-07
-2.70343e-06
-3.94861e-07
-2.645e-06
-5.53975e-07
-2.56947e-06
-7.07007e-07
-2.4775e-06
-8.51909e-07
-2.36998e-06
-9.86618e-07
-2.24797e-06
-1.10907e-06
-2.11278e-06
-1.21724e-06
-1.96593e-06
-1.30914e-06
-1.80918e-06
-1.38288e-06
-1.6445e-06
-1.43672e-06
-1.47409e-06
-1.4691e-06
-1.30037e-06
-1.47868e-06
-1.12596e-06
-1.46444e-06
-9.53617e-07
-1.42569e-06
-7.86292e-07
-1.36215e-06
-6.27024e-07
-1.27405e-06
-4.78937e-07
-1.16208e-06
-3.45191e-07
-1.02754e-06
-2.28947e-07
-8.72322e-07
-1.33323e-07
-6.98929e-07
-6.13605e-08
-5.10489e-07
-1.59906e-08
-3.1071e-07
-1.04069e-07
-2.92489e-06
-7.08134e-08
-2.90182e-06
-2.54751e-07
-2.86016e-06
-4.36524e-07
-2.80015e-06
-6.1398e-07
-2.72224e-06
-7.84918e-07
-2.62705e-06
-9.47098e-07
-2.51542e-06
-1.09825e-06
-2.3884e-06
-1.23609e-06
-2.24727e-06
-1.35837e-06
-2.09356e-06
-1.46285e-06
-1.92903e-06
-1.54741e-06
-1.75571e-06
-1.61004e-06
-1.57588e-06
-1.64893e-06
-1.39206e-06
-1.66251e-06
-1.20698e-06
-1.64951e-06
-1.02363e-06
-1.60904e-06
-8.45141e-07
-1.54064e-06
-6.74817e-07
-1.44437e-06
-5.16069e-07
-1.32083e-06
-3.72374e-07
-1.17124e-06
-2.47227e-07
-9.97468e-07
-1.44095e-07
-8.02061e-07
-6.63665e-08
-5.88218e-07
-1.73051e-08
-3.59772e-07
-1.21374e-07
-3.08024e-06
-7.43929e-08
-3.05734e-06
-2.77647e-07
-3.01518e-06
-4.78691e-07
-2.95395e-06
-6.75208e-07
-2.87405e-06
-8.64819e-07
-2.77605e-06
-1.04509e-06
-2.66074e-06
-1.21356e-06
-2.52914e-06
-1.3677e-06
-2.38248e-06
-1.50503e-06
-2.22227e-06
-1.62305e-06
-2.0503e-06
-1.71938e-06
-1.8686e-06
-1.79173e-06
-1.67953e-06
-1.83801e-06
-1.48569e-06
-1.85635e-06
-1.28999e-06
-1.84522e-06
-1.09555e-06
-1.80348e-06
-9.05753e-07
-1.73044e-06
-7.24167e-07
-1.62596e-06
-5.54502e-07
-1.49049e-06
-4.00572e-07
-1.32517e-06
-2.66231e-07
-1.13181e-06
-1.55318e-07
-9.12974e-07
-7.15939e-08
-6.71942e-07
-1.86819e-08
-4.12684e-07
-1.40056e-07
-3.2325e-06
-7.69884e-08
-3.21004e-06
-3.00116e-07
-3.1677e-06
-5.2103e-07
-3.10565e-06
-7.37258e-07
-3.02421e-06
-9.46256e-07
-2.9239e-06
-1.1454e-06
-2.80544e-06
-1.33202e-06
-2.66977e-06
-1.50337e-06
-2.51809e-06
-1.65671e-06
-2.35186e-06
-1.78928e-06
-2.17286e-06
-1.89839e-06
-1.98314e-06
-1.98145e-06
-1.78509e-06
-2.03605e-06
-1.58142e-06
-2.06002e-06
-1.37515e-06
-2.05149e-06
-1.1696e-06
-2.00903e-06
-9.68371e-07
-1.93166e-06
-7.75312e-07
-1.81901e-06
-5.94455e-07
-1.67135e-06
-4.2997e-07
-1.48965e-06
-2.861e-07
-1.27568e-06
-1.67085e-07
-1.03199e-06
-7.70908e-08
-7.61936e-07
-2.01351e-08
-4.69639e-07
-1.60191e-07
-3.38052e-06
-7.84196e-08
-3.35876e-06
-3.21877e-07
-3.31662e-06
-5.63167e-07
-3.2542e-06
-7.99675e-07
-3.17176e-06
-1.0287e-06
-3.06972e-06
-1.24744e-06
-2.94872e-06
-1.45302e-06
-2.80962e-06
-1.64247e-06
-2.65355e-06
-1.81278e-06
-2.48191e-06
-1.96092e-06
-2.29642e-06
-2.08387e-06
-2.09915e-06
-2.17872e-06
-1.8925e-06
-2.2427e-06
-1.67926e-06
-2.27326e-06
-1.46257e-06
-2.26818e-06
-1.24593e-06
-2.22566e-06
-1.03319e-06
-2.14441e-06
-8.2846e-07
-2.02374e-06
-6.36127e-07
-1.86368e-06
-4.60743e-07
-1.66504e-06
-3.06969e-07
-1.42945e-06
-1.79485e-07
-1.15947e-06
-8.29037e-08
-8.58518e-07
-2.16785e-08
-5.30865e-07
-1.81869e-07
-3.52278e-06
-7.85092e-08
-3.50202e-06
-3.42633e-07
-3.4605e-06
-6.04688e-07
-3.39824e-06
-8.6194e-07
-3.3154e-06
-1.11154e-06
-3.21231e-06
-1.35053e-06
-3.08951e-06
-1.57582e-06
-2.94776e-06
-1.78423e-06
-2.78806e-06
-1.97247e-06
-2.61175e-06
-2.13723e-06
-2.42048e-06
-2.27514e-06
-2.21627e-06
-2.38294e-06
-2.00154e-06
-2.45743e-06
-1.77912e-06
-2.49568e-06
-1.55227e-06
-2.49504e-06
-1.32465e-06
-2.45328e-06
-1.10035e-06
-2.36871e-06
-8.83785e-07
-2.24031e-06
-6.79696e-07
-2.06777e-06
-4.93051e-07
-1.85168e-06
-3.28966e-07
-1.59354e-06
-1.92606e-07
-1.29583e-06
-8.90783e-08
-9.62045e-07
-2.33257e-08
-5.96617e-07
-2.05195e-07
-3.65741e-06
-7.70879e-08
-3.63798e-06
-3.62068e-07
-3.59753e-06
-6.4514e-07
-3.536e-06
-9.23466e-07
-3.45347e-06
-1.19408e-06
-3.35014e-06
-1.45386e-06
-3.22641e-06
-1.69954e-06
-3.08292e-06
-1.92772e-06
-2.92054e-06
-2.13485e-06
-2.74049e-06
-2.31728e-06
-2.54431e-06
-2.47133e-06
-2.33395e-06
-2.59329e-06
-2.11182e-06
-2.67957e-06
-1.88076e-06
-2.72673e-06
-1.64413e-06
-2.73167e-06
-1.40576e-06
-2.69165e-06
-1.16994e-06
-2.60453e-06
-9.41424e-07
-2.46883e-06
-7.25319e-07
-2.28388e-06
-5.27044e-07
-2.04996e-06
-3.52215e-07
-1.76837e-06
-2.06533e-07
-1.44151e-06
-9.56605e-08
-1.07292e-06
-2.50903e-08
-6.67187e-07
-2.30285e-07
-3.78214e-06
-7.40019e-08
-3.76436e-06
-3.79856e-07
-3.72547e-06
-6.84025e-07
-3.66534e-06
-9.83597e-07
-3.58391e-06
-1.27551e-06
-3.48126e-06
-1.55651e-06
-3.35764e-06
-1.82316e-06
-3.21351e-06
-2.07186e-06
-3.04958e-06
-2.29877e-06
-2.86691e-06
-2.49996e-06
-2.6669e-06
-2.67133e-06
-2.45141e-06
-2.80878e-06
-2.22276e-06
-2.90821e-06
-1.98381e-06
-2.96569e-06
-1.73796e-06
-2.97752e-06
-1.48917e-06
-2.94043e-06
-1.24199e-06
-2.85171e-06
-1.00147e-06
-2.70935e-06
-7.73128e-07
-2.51222e-06
-5.62861e-07
-2.26022e-06
-3.76837e-07
-1.95439e-06
-2.21354e-07
-1.597e-06
-1.02697e-07
-1.19158e-06
-2.69867e-08
-7.42898e-07
-2.57272e-07
-3.89427e-06
-6.91212e-08
-3.87846e-06
-3.95661e-07
-3.84168e-06
-7.20807e-07
-3.78367e-06
-1.04161e-06
-3.70425e-06
-1.35492e-06
-3.60334e-06
-1.65741e-06
-3.48102e-06
-1.94549e-06
-3.33753e-06
-2.21534e-06
-3.1734e-06
-2.4629e-06
-2.98948e-06
-2.68388e-06
-2.78698e-06
-2.87383e-06
-2.56761e-06
-3.02815e-06
-2.33358e-06
-3.14225e-06
-2.08769e-06
-3.21158e-06
-1.83337e-06
-3.23184e-06
-1.57471e-06
-3.19909e-06
-1.31646e-06
-3.10996e-06
-1.06398e-06
-2.96182e-06
-8.23234e-07
-2.75297e-06
-6.00633e-07
-2.48282e-06
-4.02952e-07
-2.15207e-06
-2.37156e-07
-1.76279e-06
-1.10238e-07
-1.31849e-06
-2.90303e-08
-8.24106e-07
-2.86302e-07
-3.99061e-06
-6.23488e-08
-3.97713e-06
-4.09149e-07
-3.94302e-06
-7.54917e-07
-3.88793e-06
-1.0967e-06
-3.81153e-06
-1.43132e-06
-3.71358e-06
-1.75537e-06
-3.59391e-06
-2.06516e-06
-3.45257e-06
-2.35668e-06
-3.28983e-06
-2.62564e-06
-3.10628e-06
-2.86743e-06
-2.90292e-06
-3.07719e-06
-2.68121e-06
-3.24986e-06
-2.44321e-06
-3.38024e-06
-2.19162e-06
-3.46317e-06
-1.92985e-06
-3.49361e-06
-1.66206e-06
-3.46688e-06
-1.3932e-06
-3.37883e-06
-1.12896e-06
-3.22606e-06
-8.75723e-07
-3.0062e-06
-6.40484e-07
-2.71806e-06
-4.30682e-07
-2.36187e-06
-2.54036e-07
-1.93944e-06
-1.18337e-07
-1.45419e-06
-3.12382e-08
-9.11205e-07
-3.17541e-07
-4.06753e-06
-5.36318e-08
-4.05669e-06
-4.19992e-07
-4.02585e-06
-7.85754e-07
-3.97455e-06
-1.148e-06
-3.9023e-06
-1.50357e-06
-3.80864e-06
-1.84903e-06
-3.6932e-06
-2.1806e-06
-3.55574e-06
-2.49414e-06
-3.39624e-06
-2.78514e-06
-3.21499e-06
-3.04868e-06
-3.01269e-06
-3.2795e-06
-2.79052e-06
-3.47202e-06
-2.55032e-06
-3.62045e-06
-2.2946e-06
-3.71889e-06
-2.02669e-06
-3.76152e-06
-1.75079e-06
-3.74278e-06
-1.47201e-06
-3.65761e-06
-1.19635e-06
-3.50173e-06
-9.30659e-07
-3.27189e-06
-6.82533e-07
-2.96619e-06
-4.60157e-07
-2.58425e-06
-2.72094e-07
-2.1275e-06
-1.27055e-07
-1.59923e-06
-3.36296e-08
-1.00463e-06
-3.5117e-07
-4.12083e-06
-4.29722e-08
-4.11294e-06
-4.27884e-07
-4.08599e-06
-8.12696e-07
-4.03941e-06
-1.19458e-06
-3.97253e-06
-1.57045e-06
-3.88469e-06
-1.93687e-06
-3.77523e-06
-2.29005e-06
-3.64362e-06
-2.62575e-06
-3.4895e-06
-2.93926e-06
-3.3128e-06
-3.22538e-06
-3.11384e-06
-3.47846e-06
-2.89348e-06
-3.69238e-06
-2.65321e-06
-3.86072e-06
-2.39531e-06
-3.97679e-06
-2.12295e-06
-4.03388e-06
-1.84029e-06
-4.02543e-06
-1.55256e-06
-3.94534e-06
-1.26605e-06
-3.78824e-06
-9.88077e-07
-3.54987e-06
-7.26898e-07
-3.22737e-06
-4.91514e-07
-2.81963e-06
-2.91449e-07
-2.32757e-06
-1.36459e-07
-1.75422e-06
-3.6227e-08
-1.10486e-06
-3.87397e-07
-4.14578e-06
-3.04391e-08
-4.14112e-06
-4.32544e-07
-4.1187e-06
-8.35115e-07
-4.07781e-06
-1.23547e-06
-4.01763e-06
-1.63063e-06
-3.93725e-06
-2.01725e-06
-3.83573e-06
-2.39157e-06
-3.71219e-06
-2.74929e-06
-3.5659e-06
-3.08556e-06
-3.39635e-06
-3.39493e-06
-3.20343e-06
-3.67137e-06
-2.98755e-06
-3.90826e-06
-2.74981e-06
-4.09846e-06
-2.49213e-06
-4.23448e-06
-2.21743e-06
-4.30858e-06
-1.92976e-06
-4.3131e-06
-1.63439e-06
-4.24071e-06
-1.33786e-06
-4.08476e-06
-1.04798e-06
-3.83974e-06
-7.73696e-07
-3.50166e-06
-5.24909e-07
-3.06842e-06
-3.12233e-07
-2.54024e-06
-1.46633e-07
-1.91982e-06
-3.90574e-08
-1.21244e-06
-4.26455e-07
-4.13707e-06
-1.61798e-08
-4.13588e-06
-4.33739e-07
-4.11861e-06
-8.52384e-07
-4.08444e-06
-1.26963e-06
-4.03237e-06
-1.6827e-06
-3.96124e-06
-2.08839e-06
-3.86981e-06
-2.483e-06
-3.75682e-06
-2.86227e-06
-3.62111e-06
-3.22127e-06
-3.46168e-06
-3.55436e-06
-3.27791e-06
-3.85514e-06
-3.06969e-06
-4.11649e-06
-2.83757e-06
-4.33058e-06
-2.58303e-06
-4.48902e-06
-2.30861e-06
-4.58299e-06
-2.01815e-06
-4.60357e-06
-1.71688e-06
-4.54198e-06
-1.41152e-06
-4.39011e-06
-1.11035e-06
-4.14092e-06
-8.23048e-07
-3.78896e-06
-5.60519e-07
-3.33095e-06
-3.34607e-07
-2.76616e-06
-1.57676e-07
-2.09675e-06
-4.2154e-08
-1.32796e-06
-4.68608e-07
-4.08883e-06
-4.30546e-10
-4.09128e-06
-4.31289e-07
-4.07977e-06
-8.63898e-07
-4.05335e-06
-1.29605e-06
-4.01086e-06
-1.72519e-06
-3.95089e-06
-2.14836e-06
-3.87188e-06
-2.56202e-06
-3.77216e-06
-2.96199e-06
-3.6501e-06
-3.34334e-06
-3.50415e-06
-3.7003e-06
-3.33311e-06
-4.02618e-06
-3.1362e-06
-4.31339e-06
-2.91338e-06
-4.55341e-06
-2.6655e-06
-4.7369e-06
-2.3946e-06
-4.85389e-06
-2.10415e-06
-4.89402e-06
-1.79921e-06
-4.84692e-06
-1.48664e-06
-4.70268e-06
-1.17512e-06
-4.45244e-06
-8.7508e-07
-4.089e-06
-5.98551e-07
-3.60748e-06
-3.58764e-07
-3.00594e-06
-1.69709e-07
-2.28581e-06
-4.55579e-08
-1.45211e-06
-5.14166e-07
-3.99456e-06
1.64759e-08
-4.00077e-06
-4.25087e-07
-3.99557e-06
-8.69094e-07
-3.97795e-06
-1.31367e-06
-3.94656e-06
-1.75659e-06
-3.89974e-06
-2.19517e-06
-3.83562e-06
-2.62614e-06
-3.75212e-06
-3.04549e-06
-3.64707e-06
-3.44839e-06
-3.51836e-06
-3.82901e-06
-3.36407e-06
-4.18047e-06
-3.18273e-06
-4.49474e-06
-2.97348e-06
-4.76265e-06
-2.73646e-06
-4.97393e-06
-2.473e-06
-5.11735e-06
-2.18604e-06
-5.18099e-06
-1.88032e-06
-5.15264e-06
-1.56267e-06
-5.02032e-06
-1.24214e-06
-4.77298e-06
-9.29927e-07
-4.40121e-06
-6.39251e-07
-3.89815e-06
-3.84943e-07
-3.26025e-06
-1.82887e-07
-2.48786e-06
-4.93219e-08
-1.58568e-06
-5.63488e-07
-3.84722e-06
3.41053e-08
-3.8572e-06
-4.15109e-07
-3.85882e-06
-8.67471e-07
-3.85098e-06
-1.3215e-06
-3.8322e-06
-1.77537e-06
-3.80059e-06
-2.22678e-06
-3.75395e-06
-2.67278e-06
-3.68978e-06
-3.10966e-06
-3.60539e-06
-3.53278e-06
-3.49802e-06
-3.93638e-06
-3.36502e-06
-4.31347e-06
-3.20404e-06
-4.65572e-06
-3.01335e-06
-4.95334e-06
-2.79212e-06
-5.19515e-06
-2.54084e-06
-5.36863e-06
-2.26166e-06
-5.46017e-06
-1.9588e-06
-5.4555e-06
-1.6389e-06
-5.34023e-06
-1.31122e-06
-5.10065e-06
-9.87722e-07
-4.7247e-06
-6.8292e-07
-4.20296e-06
-4.13446e-07
-3.52972e-06
-1.97407e-07
-2.7039e-06
-5.35139e-08
-1.72957e-06
-6.17002e-07
-3.63917e-06
5.1923e-08
-3.65285e-06
-4.01427e-07
-3.66171e-06
-8.58617e-07
-3.66458e-06
-1.31862e-06
-3.65987e-06
-1.78008e-06
-3.6455e-06
-2.24114e-06
-3.61897e-06
-2.69931e-06
-3.57738e-06
-3.15126e-06
-3.5175e-06
-3.59266e-06
-3.43592e-06
-4.01797e-06
-3.32916e-06
-4.42023e-06
-3.19394e-06
-4.79093e-06
-3.02749e-06
-5.1198e-06
-2.82785e-06
-5.39479e-06
-2.59439e-06
-5.60209e-06
-2.32824e-06
-5.72633e-06
-2.03281e-06
-5.75092e-06
-1.7143e-06
-5.65874e-06
-1.38202e-06
-5.43294e-06
-1.0486e-06
-5.05812e-06
-7.29918e-07
-4.52164e-06
-4.44652e-07
-3.81499e-06
-2.13526e-07
-2.93503e-06
-5.82232e-08
-1.88487e-06
-6.75225e-07
-3.3623e-06
6.93017e-08
-3.37951e-06
-3.8422e-07
-3.39589e-06
-8.42234e-07
-3.41029e-06
-1.30423e-06
-3.42101e-06
-1.76936e-06
-3.42584e-06
-2.23632e-06
-3.42202e-06
-2.70313e-06
-3.40627e-06
-3.167e-06
-3.37489e-06
-3.62404e-06
-3.32377e-06
-4.06909e-06
-3.24861e-06
-4.49539e-06
-3.14512e-06
-4.89442e-06
-3.00931e-06
-5.2556e-06
-2.83794e-06
-5.56616e-06
-2.62898e-06
-5.81106e-06
-2.38221e-06
-5.97309e-06
-2.09992e-06
-6.03321e-06
-1.78749e-06
-5.97116e-06
-1.45402e-06
-5.76641e-06
-1.11267e-06
-5.39948e-06
-7.80682e-07
-4.85362e-06
-4.79047e-07
-4.11663e-06
-2.31576e-07
-3.1825e-06
-6.35687e-08
-2.05288e-06
-7.38794e-07
-3.00804e-06
8.55379e-08
-3.02849e-06
-3.63772e-07
-3.05256e-06
-8.18164e-07
-3.07912e-06
-1.27767e-06
-3.10646e-06
-1.74202e-06
-3.13227e-06
-2.21051e-06
-3.1536e-06
-2.6818e-06
-3.1669e-06
-3.1537e-06
-3.16799e-06
-3.62296e-06
-3.15215e-06
-4.08493e-06
-3.11424e-06
-4.5333e-06
-3.0489e-06
-4.95976e-06
-2.95087e-06
-5.35364e-06
-2.81536e-06
-5.70166e-06
-2.63871e-06
-5.98771e-06
-2.41898e-06
-6.19282e-06
-2.15687e-06
-6.29532e-06
-1.85654e-06
-6.2715e-06
-1.52644e-06
-6.09651e-06
-1.17997e-06
-5.74595e-06
-8.35733e-07
-5.19786e-06
-5.17256e-07
-4.4351e-06
-2.52002e-07
-3.44775e-06
-6.97112e-08
-2.23517e-06
-8.08505e-07
-2.56749e-06
9.98796e-08
-2.59078e-06
-3.4048e-07
-2.62253e-06
-7.86411e-07
-2.66169e-06
-1.23851e-06
-2.70657e-06
-1.69713e-06
-2.75486e-06
-2.16222e-06
-2.80353e-06
-2.63313e-06
-2.84881e-06
-3.10842e-06
-2.88618e-06
-3.58558e-06
-2.91039e-06
-4.06072e-06
-2.91551e-06
-4.52818e-06
-2.89512e-06
-4.98014e-06
-2.84259e-06
-5.40617e-06
-2.75147e-06
-5.79278e-06
-2.61613e-06
-6.12306e-06
-2.43254e-06
-6.3764e-06
-2.19929e-06
-6.52858e-06
-1.91869e-06
-6.55209e-06
-1.598e-06
-6.4172e-06
-1.2504e-06
-6.09354e-06
-8.95674e-07
-5.55259e-06
-5.60079e-07
-4.7707e-06
-2.75399e-07
-3.73243e-06
-7.68717e-08
-2.4337e-06
-8.85377e-07
-2.03154e-06
1.11565e-07
-2.05719e-06
-3.14833e-07
-2.09643e-06
-7.47171e-07
-2.14833e-06
-1.18661e-06
-2.21133e-06
-1.63413e-06
-2.2832e-06
-2.09035e-06
-2.36094e-06
-2.55539e-06
-2.44071e-06
-3.02865e-06
-2.51779e-06
-3.5085e-06
-2.58653e-06
-3.99198e-06
-2.64034e-06
-4.47437e-06
-2.67184e-06
-4.94865e-06
-2.673e-06
-5.40501e-06
-2.6356e-06
-5.83017e-06
-2.55181e-06
-6.20685e-06
-2.41506e-06
-6.51316e-06
-2.22121e-06
-6.72242e-06
-1.97002e-06
-6.80328e-06
-1.66672e-06
-6.7205e-06
-1.3236e-06
-6.43667e-06
-9.61163e-07
-5.91502e-06
-6.08542e-07
-5.12332e-06
-3.02571e-07
-4.0384e-06
-8.53593e-08
-2.65091e-06
-9.70736e-07
-1.39108e-06
1.19874e-07
-1.41851e-06
-2.87403e-07
-1.46484e-06
-7.00841e-07
-1.52931e-06
-1.12214e-06
-1.61057e-06
-1.55287e-06
-1.70657e-06
-1.99435e-06
-1.81448e-06
-2.44748e-06
-1.93057e-06
-2.91255e-06
-2.05013e-06
-3.38895e-06
-2.16728e-06
-3.87483e-06
-2.27501e-06
-4.36663e-06
-2.36512e-06
-4.85855e-06
-2.42832e-06
-5.34181e-06
-2.45459e-06
-5.8039e-06
-2.43372e-06
-6.22772e-06
-2.35618e-06
-6.59069e-06
-2.21447e-06
-6.86413e-06
-2.00486e-06
-7.0129e-06
-1.72947e-06
-6.99588e-06
-1.39863e-06
-6.76751e-06
-1.03284e-06
-6.28081e-06
-6.63945e-07
-5.49222e-06
-3.34619e-07
-4.36773e-06
-9.56159e-08
-2.88991e-06
-1.06635e-06
-6.37158e-07
1.2419e-07
-6.65746e-07
-2.58815e-07
-7.18554e-07
-6.48033e-07
-7.95049e-07
-1.04565e-06
-8.9415e-07
-1.45377e-06
-1.01413e-06
-1.87438e-06
-1.15248e-06
-2.30913e-06
-1.3058e-06
-2.75923e-06
-1.46958e-06
-3.22517e-06
-1.63806e-06
-3.70635e-06
-1.80406e-06
-4.20064e-06
-1.95884e-06
-4.70376e-06
-2.09214e-06
-5.20851e-06
-2.19226e-06
-5.70377e-06
-2.24657e-06
-6.17342e-06
-2.24226e-06
-6.595e-06
-2.1678e-06
-6.93859e-06
-2.01491e-06
-7.16579e-06
-1.78124e-06
-7.22955e-06
-1.4736e-06
-7.07515e-06
-1.11117e-06
-6.64325e-06
-7.27909e-07
-5.87548e-06
-3.73066e-07
-4.72257e-06
-1.08289e-07
-3.15469e-06
-1.17464e-06
2.38702e-07
1.24073e-07
2.09596e-07
-2.29708e-07
1.51141e-07
-5.89579e-07
6.36026e-08
-9.58107e-07
-5.22938e-08
-1.33788e-06
-1.95254e-07
-1.73142e-06
-3.63276e-07
-2.14111e-06
-5.53473e-07
-2.56904e-06
-7.6186e-07
-3.01678e-06
-9.83106e-07
-3.4851e-06
-1.21027e-06
-3.97348e-06
-1.43454e-06
-4.47949e-06
-1.64505e-06
-4.998e-06
-1.82881e-06
-5.52001e-06
-1.97092e-06
-6.0313e-06
-2.05522e-06
-6.5107e-06
-2.06558e-06
-6.92823e-06
-1.98804e-06
-7.24334e-06
-1.81407e-06
-7.40352e-06
-1.54483e-06
-7.34439e-06
-1.19601e-06
-6.99206e-06
-8.02363e-07
-6.26912e-06
-4.2003e-07
-5.10491e-06
-1.24353e-07
-3.45037e-06
-1.29899e-06
1.24422e-06
1.19334e-07
1.21521e-06
-2.007e-07
1.15215e-06
-5.26519e-07
1.05501e-06
-8.60963e-07
9.24082e-07
-1.20695e-06
7.60131e-07
-1.56746e-06
5.64495e-07
-1.94547e-06
3.39305e-07
-2.34385e-06
8.77267e-08
-2.76521e-06
-1.85732e-07
-3.21164e-06
-4.74856e-07
-3.68435e-06
-7.71329e-07
-4.18302e-06
-1.06432e-06
-4.70501e-06
-1.34017e-06
-5.24417e-06
-1.58224e-06
-5.78923e-06
-1.77124e-06
-6.3217e-06
-1.88615e-06
-6.81332e-06
-1.90638e-06
-7.22311e-06
-1.81525e-06
-7.49464e-06
-1.60544e-06
-7.5542e-06
-1.28589e-06
-7.31161e-06
-8.89407e-07
-6.6656e-06
-4.7847e-07
-5.51584e-06
-1.45323e-07
-3.78351e-06
-1.44432e-06
2.38599e-06
1.10104e-07
2.35763e-06
-1.72337e-07
2.29121e-06
-4.60092e-07
2.18637e-06
-7.56128e-07
2.04297e-06
-1.06355e-06
1.86113e-06
-1.38562e-06
1.6414e-06
-1.72574e-06
1.38494e-06
-2.08739e-06
1.09381e-06
-2.47407e-06
7.71269e-07
-2.88911e-06
4.22267e-07
-3.33535e-06
5.39327e-08
-3.81468e-06
-3.23792e-07
-4.32728e-06
-6.97514e-07
-4.87044e-06
-1.04983e-06
-5.43691e-06
-1.35906e-06
-6.01248e-06
-1.59963e-06
-6.57275e-06
-1.74368e-06
-7.07906e-06
-1.76456e-06
-7.47377e-06
-1.64298e-06
-7.67578e-06
-1.3764e-06
-7.5782e-06
-9.90792e-07
-7.05121e-06
-5.52466e-07
-5.95417e-06
-1.7362e-07
-4.16236e-06
-1.61794e-06
3.66912e-06
9.68915e-08
3.64185e-06
-1.45062e-07
3.57347e-06
-3.91715e-07
3.46334e-06
-6.46002e-07
3.31084e-06
-9.11045e-07
3.1154e-06
-1.19019e-06
2.8767e-06
-1.48704e-06
2.59479e-06
-1.80547e-06
2.27034e-06
-2.14962e-06
1.90501e-06
-2.52378e-06
1.50191e-06
-2.93225e-06
1.06623e-06
-3.379e-06
6.05992e-07
-3.86705e-06
1.33063e-07
-4.39752e-06
-3.35851e-07
-4.968e-06
-7.782e-07
-5.57013e-06
-1.16505e-06
-6.1859e-06
-1.46163e-06
-6.78248e-06
-1.62999e-06
-7.30541e-06
-1.63527e-06
-7.6705e-06
-1.45706e-06
-7.75641e-06
-1.10652e-06
-7.40175e-06
-6.47414e-07
-6.41327e-06
-2.13209e-07
-4.59656e-06
-1.83115e-06
5.09677e-06
8.06059e-08
5.0709e-06
-1.19186e-07
5.00214e-06
-3.22957e-07
4.88959e-06
-5.33448e-07
4.73215e-06
-7.5361e-07
4.52863e-06
-9.86669e-07
4.27779e-06
-1.23619e-06
3.97847e-06
-1.50616e-06
3.62984e-06
-1.80099e-06
3.23165e-06
-2.12559e-06
2.78472e-06
-2.48532e-06
2.29153e-06
-2.88581e-06
1.75714e-06
-3.33266e-06
1.19034e-06
-3.83072e-06
6.05196e-07
-4.38285e-06
2.27459e-08
-4.98768e-06
-5.2718e-07
-5.63597e-06
-1.00485e-06
-6.30482e-06
-1.36135e-06
-6.94891e-06
-1.5434e-06
-7.48844e-06
-1.50531e-06
-7.7945e-06
-1.23133e-06
-7.67573e-06
-7.69614e-07
-6.87499e-06
-2.70609e-07
-5.09557e-06
-2.10175e-06
6.66978e-06
6.25396e-08
6.64549e-06
-9.48983e-08
6.57806e-06
-2.55531e-07
6.46637e-06
-4.21759e-07
6.30896e-06
-5.96196e-07
6.10403e-06
-7.81744e-07
5.84952e-06
-9.81682e-07
5.54313e-06
-1.19977e-06
5.18249e-06
-1.44034e-06
4.76534e-06
-1.70844e-06
4.28991e-06
-2.00989e-06
3.75545e-06
-2.35135e-06
3.16307e-06
-2.74028e-06
2.51697e-06
-3.18463e-06
1.82624e-06
-3.69212e-06
1.10725e-06
-4.26869e-06
3.86734e-07
-4.91546e-06
-2.94909e-07
-5.62317e-06
-8.81165e-07
-6.36265e-06
-1.30037e-06
-7.06924e-06
-1.47498e-06
-7.61989e-06
-1.34649e-06
-7.80422e-06
-9.2374e-07
-7.29774e-06
-3.56275e-07
-5.66303e-06
-2.45803e-06
8.3862e-06
4.42857e-08
8.3636e-06
-7.23017e-08
8.29936e-06
-1.91289e-07
8.19222e-06
-3.14622e-07
8.04046e-06
-4.44438e-07
7.84186e-06
-5.83139e-07
7.59367e-06
-7.33495e-07
7.29266e-06
-8.98753e-07
6.93509e-06
-1.08277e-06
6.51685e-06
-1.2902e-06
6.03363e-06
-1.52666e-06
5.48124e-06
-1.79896e-06
4.85627e-06
-2.11531e-06
4.15714e-06
-2.48549e-06
3.38578e-06
-2.92075e-06
2.55032e-06
-3.43323e-06
1.66908e-06
-4.03422e-06
7.76015e-07
-4.73011e-06
-7.27356e-08
-5.5139e-06
-7.93287e-07
-6.34869e-06
-1.27516e-06
-7.13801e-06
-1.401e-06
-7.67838e-06
-1.10343e-06
-7.59532e-06
-4.8495e-07
-6.28151e-06
-2.94298e-06
1.0241e-05
2.75806e-08
1.02202e-05
-5.15138e-08
1.01612e-05
-1.32256e-07
1.00626e-05
-2.1607e-07
9.92272e-06
-3.0453e-07
9.73901e-06
-3.99429e-07
9.50837e-06
-5.02863e-07
9.22696e-06
-6.17338e-07
8.89009e-06
-7.45909e-07
8.49225e-06
-8.92358e-07
8.02701e-06
-1.06142e-06
7.48717e-06
-1.25912e-06
6.86496e-06
-1.4931e-06
6.15262e-06
-1.77316e-06
5.34364e-06
-2.11177e-06
4.43492e-06
-2.5245e-06
3.43072e-06
-3.03003e-06
2.34929e-06
-3.64867e-06
1.23292e-06
-4.39753e-06
1.61688e-07
-5.27745e-06
-7.33395e-07
-6.24293e-06
-1.27075e-06
-7.14102e-06
-1.26164e-06
-7.60443e-06
-6.68222e-07
-6.87493e-06
-3.6112e-06
1.22258e-05
1.40604e-08
1.22071e-05
-3.28226e-08
1.21555e-05
-8.06936e-08
1.20699e-05
-1.30452e-07
1.19485e-05
-1.83097e-07
1.17888e-05
-2.39776e-07
1.15878e-05
-3.0185e-07
1.13414e-05