/*--------------------------------*- C++ -*----------------------------------*\
| =========                 |                                                 |
| \\      /  F ield         | OpenFOAM: The Open Source CFD Toolbox           |
|  \\    /   O peration     | Version:  v2012                                 |
|   \\  /    A nd           | Website:  www.openfoam.com                      |
|    \\/     M anipulation  |                                                 |
\*---------------------------------------------------------------------------*/
FoamFile
{
    version     2.0;
    format      ascii;
    class       surfaceScalarField;
    location    "0.1";
    object      phi;
}
// * * * * * * * * * * * * * * * * * * * * * * * * * * * * * * * * * * * * * //

dimensions      [0 3 -1 0 0 0 0];
oriented        oriented;


internalField   nonuniform List<scalar> 
2425
(
-1.38991e-07
-5.36761e-10
-1.37239e-07
-1.75194e-09
-1.34291e-07
-2.94825e-09
-1.30182e-07
-4.10903e-09
-1.24964e-07
-5.21715e-09
-1.1871e-07
-6.25492e-09
-1.11505e-07
-7.20429e-09
-1.03458e-07
-8.04713e-09
-9.46926e-08
-8.76556e-09
-8.53506e-08
-9.34207e-09
-7.55908e-08
-9.75978e-09
-6.55879e-08
-1.00029e-08
-5.5531e-08
-1.00569e-08
-4.56219e-08
-9.90909e-09
-3.60728e-08
-9.54904e-09
-2.71037e-08
-8.9691e-09
-1.89383e-08
-8.16542e-09
-1.17989e-08
-7.13937e-09
-5.89877e-09
-5.90008e-09
-1.42918e-09
-4.46957e-09
1.46416e-09
-2.89331e-09
2.7246e-09
-1.26043e-09
2.4662e-09
2.58404e-10
1.16181e-09
1.30439e-09
1.16181e-09
-3.91964e-07
-2.03732e-09
-3.87159e-07
-6.55721e-09
-3.79103e-07
-1.10047e-08
-3.67895e-07
-1.53165e-08
-3.53684e-07
-1.94284e-08
-3.36664e-07
-2.32747e-08
-3.1708e-07
-2.6789e-08
-2.95222e-07
-2.99052e-08
-2.71429e-07
-3.25582e-08
-2.46086e-07
-3.4685e-08
-2.1962e-07
-3.62257e-08
-1.92498e-07
-3.71251e-08
-1.65221e-07
-3.73337e-08
-1.3832e-07
-3.68101e-08
-1.12346e-07
-3.55227e-08
-8.78625e-08
-3.34528e-08
-6.54291e-08
-3.05987e-08
-4.55865e-08
-2.6982e-08
-2.88294e-08
-2.2657e-08
-1.55703e-08
-1.77287e-08
-6.08174e-09
-1.23819e-08
-4.07986e-10
-6.93416e-09
1.7712e-09
-1.92076e-09
1.31637e-09
1.75921e-09
2.47817e-09
-6.24636e-07
-4.39987e-09
-6.17153e-07
-1.40394e-08
-6.04636e-07
-2.35218e-08
-5.87242e-07
-3.27112e-08
-5.652e-07
-4.14704e-08
-5.38814e-07
-4.966e-08
-5.08463e-07
-5.71399e-08
-4.74597e-07
-6.37713e-08
-4.37737e-07
-6.94182e-08
-3.98472e-07
-7.39498e-08
-3.57455e-07
-7.7243e-08
-3.15395e-07
-7.91853e-08
-2.7305e-07
-7.96786e-08
-2.31217e-07
-7.86427e-08
-1.90719e-07
-7.6021e-08
-1.52385e-07
-7.17866e-08
-1.17032e-07
-6.59517e-08
-8.54341e-08
-5.858e-08
-5.82846e-08
-4.98065e-08
-3.61458e-08
-3.98675e-08
-1.93774e-08
-2.91502e-08
-8.0416e-09
-1.82699e-08
-1.78292e-09
-8.17947e-09
3.20132e-10
-3.43854e-10
2.79832e-09
-8.40778e-07
-7.52787e-09
-8.30936e-07
-2.38816e-08
-8.14492e-07
-3.99655e-08
-7.91654e-07
-5.55499e-08
-7.62722e-07
-7.04022e-08
-7.28094e-07
-8.42878e-08
-6.88262e-07
-9.69718e-08
-6.43811e-07
-1.08222e-07
-5.95417e-07
-1.17813e-07
-5.4384e-07
-1.25527e-07
-4.89921e-07
-1.31162e-07
-4.3457e-07
-1.34537e-07
-3.78756e-07
-1.35492e-07
-3.23493e-07
-1.33905e-07
-2.69822e-07
-1.29692e-07
-2.18785e-07
-1.22823e-07
-1.71402e-07
-1.13335e-07
-1.2863e-07
-1.01352e-07
-9.13224e-08
-8.71138e-08
-6.01717e-08
-7.10181e-08
-3.56398e-08
-5.3682e-08
-1.78753e-08
-3.60345e-08
-6.6212e-09
-1.94336e-08
-1.123e-09
-5.84202e-09
1.67533e-09
-1.04348e-06
-1.13289e-08
-1.03154e-06
-3.58138e-08
-1.01162e-06
-5.98931e-08
-9.83941e-07
-8.32243e-08
-9.48882e-07
-1.05461e-07
-9.06914e-07
-1.26256e-07
-8.58624e-07
-1.45261e-07
-8.04712e-07
-1.62134e-07
-7.45981e-07
-1.76543e-07
-6.83337e-07
-1.88171e-07
-6.17776e-07
-1.96724e-07
-5.50375e-07
-2.01938e-07
-4.82278e-07
-2.03589e-07
-4.1468e-07
-2.01504e-07
-3.48799e-07
-1.95573e-07
-2.85857e-07
-1.85765e-07
-2.27042e-07
-1.7215e-07
-1.7347e-07
-1.54924e-07
-1.26141e-07
-1.34443e-07
-8.58827e-08
-1.11276e-07
-5.32915e-08
-8.62733e-08
-2.86664e-08
-6.06596e-08
-1.19501e-08
-3.61498e-08
-2.68554e-09
-1.51065e-08
-1.01023e-09
-1.23538e-06
-1.57121e-08
-1.22159e-06
-4.96048e-08
-1.19855e-06
-8.2937e-08
-1.16653e-06
-1.15238e-07
-1.12596e-06
-1.46034e-07
-1.07737e-06
-1.74846e-07
-1.02143e-06
-2.01201e-07
-9.58932e-07
-2.24632e-07
-8.90788e-07
-2.44686e-07
-8.18024e-07
-2.60935e-07
-7.41767e-07
-2.72981e-07
-6.63234e-07
-2.8047e-07
-5.83718e-07
-2.83105e-07
-5.04564e-07
-2.80658e-07
-4.27147e-07
-2.7299e-07
-3.52843e-07
-2.6007e-07
-2.82992e-07
-2.42001e-07
-2.18862e-07
-2.19054e-07
-1.61601e-07
-1.91704e-07
-1.1219e-07
-1.60687e-07
-7.13937e-08
-1.2707e-07
-3.97138e-08
-9.23395e-08
-1.73577e-08
-5.85059e-08
-4.23309e-09
-2.82311e-08
-5.24333e-09
-1.41877e-06
-2.05862e-08
-1.40332e-06
-6.50532e-08
-1.37746e-06
-1.0879e-07
-1.34151e-06
-1.51187e-07
-1.29592e-06
-1.91626e-07
-1.24128e-06
-2.29488e-07
-1.17832e-06
-2.64161e-07
-1.10791e-06
-2.95039e-07
-1.03106e-06
-3.21539e-07
-9.48889e-07
-3.43108e-07
-8.62634e-07
-3.59236e-07
-7.73636e-07
-3.69469e-07
-6.83313e-07
-3.73428e-07
-5.93145e-07
-3.70825e-07
-5.04648e-07
-3.61487e-07
-4.1934e-07
-3.45378e-07
-3.38709e-07
-3.22632e-07
-2.64175e-07
-2.93588e-07
-1.97046e-07
-2.58833e-07
-1.38477e-07
-2.19256e-07
-8.94327e-08
-1.76114e-07
-5.06547e-08
-1.31117e-07
-2.26507e-08
-8.651e-08
-5.71305e-09
-4.51687e-08
-1.09564e-08
-1.59554e-06
-2.58576e-08
-1.57862e-06
-8.19796e-08
-1.55021e-06
-1.37193e-07
-1.51066e-06
-1.90735e-07
-1.46045e-06
-2.41838e-07
-1.40021e-06
-2.8973e-07
-1.33073e-06
-3.33645e-07
-1.25293e-06
-3.72833e-07
-1.1679e-06
-4.06568e-07
-1.07685e-06
-4.34161e-07
-9.81105e-07
-4.5498e-07
-8.82113e-07
-4.68461e-07
-7.81407e-07
-4.74134e-07
-6.8059e-07
-4.71642e-07
-5.81309e-07
-4.60768e-07
-4.85221e-07
-4.41466e-07
-3.93964e-07
-4.13889e-07
-3.09117e-07
-3.78435e-07
-2.32163e-07
-3.35787e-07
-1.64454e-07
-2.86965e-07
-1.07178e-07
-2.33391e-07
-6.13387e-08
-1.76956e-07
-2.77606e-08
-1.20088e-07
-7.11362e-09
-6.58157e-08
-1.807e-08
-1.76731e-06
-3.14288e-08
-1.74907e-06
-1.00219e-07
-1.71834e-06
-1.67917e-07
-1.67548e-06
-2.33601e-07
-1.62097e-06
-2.96341e-07
-1.5555e-06
-3.55204e-07
-1.47988e-06
-4.09264e-07
-1.3951e-06
-4.57612e-07
-1.3023e-06
-4.9937e-07
-1.20275e-06
-5.33705e-07
-1.09789e-06
-5.59849e-07
-9.89229e-07
-5.77118e-07
-8.78423e-07
-5.84939e-07
-7.67189e-07
-5.82876e-07
-6.57301e-07
-5.70657e-07
-5.50558e-07
-5.48208e-07
-4.48752e-07
-5.15694e-07
-3.53635e-07
-4.73553e-07
-2.66878e-07
-4.22543e-07
-1.90048e-07
-3.63795e-07
-1.24574e-07
-2.98865e-07
-7.17397e-08
-2.2979e-07
-3.26862e-08
-1.59141e-07
-8.44226e-09
-9.00596e-08
-2.65122e-08
-1.93536e-06
-3.71955e-08
-1.91596e-06
-1.19615e-07
-1.88312e-06
-2.00759e-07
-1.83719e-06
-2.79538e-07
-1.77867e-06
-3.54854e-07
-1.70827e-06
-4.25607e-07
-1.62683e-06
-4.90699e-07
-1.53539e-06
-5.49056e-07
-1.43512e-06
-5.99636e-07
-1.32738e-06
-6.41449e-07
-1.21365e-06
-6.7358e-07
-1.09555e-06
-6.95215e-07
-9.74831e-07
-7.05662e-07
-8.53315e-07
-7.04392e-07
-7.3291e-07
-6.91061e-07
-6.15562e-07
-6.65557e-07
-5.03226e-07
-6.2803e-07
-3.97835e-07
-5.78944e-07
-3.01267e-07
-5.19111e-07
-2.15317e-07
-4.49746e-07
-1.41672e-07
-3.7251e-07
-8.19016e-08
-2.89561e-07
-3.74603e-08
-2.03583e-07
-9.71458e-09
-1.17805e-07
-3.62268e-08
-2.10074e-06
-4.30459e-08
-2.08034e-06
-1.40012e-07
-2.04557e-06
-2.35523e-07
-1.99679e-06
-3.28319e-07
-1.93452e-06
-4.17129e-07
-1.85945e-06
-5.00674e-07
-1.77247e-06
-5.77681e-07
-1.67462e-06
-6.469e-07
-1.56715e-06
-7.07114e-07
-1.45143e-06
-7.57166e-07
-1.32903e-06
-7.95981e-07
-1.20165e-06
-8.22597e-07
-1.07112e-06
-8.36191e-07
-9.39389e-07
-8.36121e-07
-8.08496e-07
-8.21954e-07
-6.80535e-07
-7.93517e-07
-5.57636e-07
-7.5093e-07
-4.41926e-07
-6.94654e-07
-3.35503e-07
-6.25534e-07
-2.40404e-07
-5.44845e-07
-1.58585e-07
-4.54329e-07
-9.19065e-08
-3.5624e-07
-4.21327e-08
-2.53356e-07
-1.09491e-08
-1.48989e-07
-4.7176e-08
-2.2642e-06
-4.8859e-08
-2.24296e-06
-1.61252e-07
-2.20646e-06
-2.72019e-07
-2.15506e-06
-3.79728e-07
-2.08926e-06
-4.82927e-07
-2.00977e-06
-5.80158e-07
-1.91749e-06
-6.69964e-07
-1.81348e-06
-7.50907e-07
-1.69901e-06
-8.21587e-07
-1.57551e-06
-8.80668e-07
-1.44459e-06
-9.26899e-07
-1.30803e-06
-9.59153e-07
-1.16777e-06
-9.76459e-07
-1.02585e-06
-9.78038e-07
-8.84451e-07
-9.63352e-07
-7.45828e-07
-9.32139e-07
-6.12291e-07
-8.84466e-07
-4.86177e-07
-8.20768e-07
-3.69813e-07
-7.41898e-07
-2.65495e-07
-6.49162e-07
-1.75457e-07
-5.44367e-07
-1.01855e-07
-4.29842e-07
-4.67601e-08
-3.08451e-07
-1.21651e-08
-1.83584e-07
-5.93411e-08
-2.42627e-06
-5.45036e-08
-2.40435e-06
-1.83166e-07
-2.36632e-06
-3.10047e-07
-2.31251e-06
-4.33539e-07
-2.24343e-06
-5.5201e-07
-2.15977e-06
-6.63813e-07
-2.06244e-06
-7.67302e-07
-1.9525e-06
-8.60846e-07
-1.83124e-06
-9.42848e-07
-1.70013e-06
-1.01178e-06
-1.56083e-06
-1.0662e-06
-1.41519e-06
-1.10479e-06
-1.26523e-06
-1.12642e-06
-1.11313e-06
-1.13015e-06
-9.61178e-07
-1.1153e-06
-8.11812e-07
-1.08151e-06
-6.67529e-07
-1.02875e-06
-5.30885e-07
-9.57413e-07
-4.04454e-07
-8.68328e-07
-2.908e-07
-7.62816e-07
-1.92447e-07
-6.4272e-07
-1.11854e-07
-5.10435e-07
-5.14007e-08
-3.68904e-07
-1.33808e-08
-2.21604e-07
-7.27219e-08
-2.58719e-06
-5.98382e-08
-2.56479e-06
-2.05575e-07
-2.52544e-06
-3.49395e-07
-2.46946e-06
-4.89515e-07
-2.39735e-06
-6.2412e-07
-2.30979e-06
-7.51375e-07
-2.20766e-06
-8.69436e-07
-2.09203e-06
-9.76469e-07
-1.96421e-06
-1.07067e-06
-1.82568e-06
-1.15031e-06
-1.67815e-06
-1.21372e-06
-1.52353e-06
-1.25941e-06
-1.36393e-06
-1.28602e-06
-1.20162e-06
-1.29245e-06
-1.03907e-06
-1.27785e-06
-8.78857e-07
-1.24172e-06
-7.23692e-07
-1.18391e-06
-5.76359e-07
-1.10475e-06
-4.39692e-07
-1.005e-06
-3.16537e-07
-8.85971e-07
-2.09719e-07
-7.49538e-07
-1.22013e-07
-5.98142e-07
-5.61118e-08
-4.34805e-07
-1.46141e-08
-2.63101e-07
-8.7336e-08
-2.74698e-06
-6.47106e-08
-2.72427e-06
-2.28283e-07
-2.68384e-06
-3.89829e-07
-2.62596e-06
-5.47392e-07
-2.55111e-06
-6.98973e-07
-2.45994e-06
-8.42546e-07
-2.35331e-06
-9.76067e-07
-2.23228e-06
-1.09749e-06
-2.09815e-06
-1.2048e-06
-1.95243e-06
-1.29603e-06
-1.79685e-06
-1.36931e-06
-1.63337e-06
-1.42289e-06
-1.46419e-06
-1.45521e-06
-1.29169e-06
-1.46495e-06
-1.11848e-06
-1.45107e-06
-9.47313e-07
-1.41288e-06
-7.81111e-07
-1.35012e-06
-6.22901e-07
-1.26296e-06
-4.75789e-07
-1.15211e-06
-3.42919e-07
-1.01884e-06
-2.27435e-07
-8.65022e-07
-1.32437e-07
-6.9314e-07
-6.09485e-08
-5.06293e-07
-1.58814e-08
-3.08169e-07
-1.03217e-07
-2.90535e-06
-6.89592e-08
-2.88256e-06
-2.51076e-07
-2.8413e-06
-4.31089e-07
-2.78182e-06
-6.06869e-07
-2.70456e-06
-7.76239e-07
-2.61012e-06
-9.36981e-07
-2.49934e-06
-1.08685e-06
-2.37326e-06
-1.22358e-06
-2.23314e-06
-1.34492e-06
-2.0805e-06
-1.44867e-06
-1.9171e-06
-1.53271e-06
-1.74494e-06
-1.59505e-06
-1.56628e-06
-1.63387e-06
-1.38363e-06
-1.6476e-06
-1.19972e-06
-1.63498e-06
-1.0175e-06
-1.5951e-06
-8.40095e-07
-1.52752e-06
-6.70798e-07
-1.43225e-06
-5.12997e-07
-1.30991e-06
-3.70154e-07
-1.16168e-06
-2.45749e-07
-9.89428e-07
-1.43228e-07
-7.9566e-07
-6.59632e-08
-5.83559e-07
-1.71981e-08
-3.56934e-07
-1.20416e-07
-3.06176e-06
-7.24141e-08
-3.03912e-06
-2.73721e-07
-2.99732e-06
-4.72882e-07
-2.93659e-06
-6.67605e-07
-2.85729e-06
-8.55538e-07
-2.76e-06
-1.03427e-06
-2.64549e-06
-1.20136e-06
-2.51476e-06
-1.3543e-06
-2.36905e-06
-1.49063e-06
-2.20986e-06
-1.60786e-06
-2.03894e-06
-1.70363e-06
-1.85834e-06
-1.77565e-06
-1.67037e-06
-1.82183e-06
-1.47765e-06
-1.84032e-06
-1.28304e-06
-1.82958e-06
-1.08968e-06
-1.78846e-06
-9.0092e-07
-1.71628e-06
-7.20312e-07
-1.61286e-06
-5.51553e-07
-1.47867e-06
-3.98439e-07
-1.3148e-06
-2.64809e-07
-1.12306e-06
-1.54484e-07
-9.05985e-07
-7.12057e-08
-6.66837e-07
-1.85789e-08
-4.0956e-07
-1.38994e-07
-3.21534e-06
-7.49001e-08
-3.1931e-06
-2.95963e-07
-3.1511e-06
-5.1488e-07
-3.0895e-06
-7.29207e-07
-3.00862e-06
-9.36424e-07
-2.90895e-06
-1.13394e-06
-2.79122e-06
-1.31909e-06
-2.65636e-06
-1.48916e-06
-2.50555e-06
-1.64143e-06
-2.34026e-06
-1.77315e-06
-2.16224e-06
-1.88166e-06
-1.97353e-06
-1.96436e-06
-1.77651e-06
-2.01885e-06
-1.57387e-06
-2.04296e-06
-1.36862e-06
-2.03483e-06
-1.16408e-06
-1.99301e-06
-9.63821e-07
-1.91653e-06
-7.71679e-07
-1.805e-06
-5.91673e-07
-1.65867e-06
-4.27957e-07
-1.47851e-06
-2.84757e-07
-1.26626e-06
-1.66296e-07
-1.02445e-06
-7.67235e-08
-7.56409e-07
-2.00377e-08
-4.66246e-07
-1.59032e-07
-3.36492e-06
-7.62393e-08
-3.34336e-06
-3.17527e-07
-3.30152e-06
-5.56716e-07
-3.23951e-06
-7.91225e-07
-3.15755e-06
-1.01838e-06
-3.05609e-06
-1.2354e-06
-2.93575e-06
-1.43943e-06
-2.79737e-06
-1.62754e-06
-2.64209e-06
-1.79671e-06
-2.47129e-06
-1.94395e-06
-2.28669e-06
-2.06626e-06
-2.09033e-06
-2.16072e-06
-1.88462e-06
-2.22456e-06
-1.67232e-06
-2.25526e-06
-1.45656e-06
-2.25058e-06
-1.24085e-06
-2.20873e-06
-1.02899e-06
-2.12839e-06
-8.25104e-07
-2.00889e-06
-6.33554e-07
-1.85022e-06
-4.58879e-07
-1.65319e-06
-3.05724e-07
-1.41941e-06
-1.78754e-07
-1.15142e-06
-8.25629e-08
-8.526e-07
-2.15881e-08
-5.27221e-07
-1.8062e-07
-3.50898e-06
-7.62566e-08
-3.48839e-06
-3.38117e-07
-3.44712e-06
-5.97982e-07
-3.3852e-06
-8.53147e-07
-3.30278e-06
-1.10079e-06
-3.2002e-06
-1.33798e-06
-3.07797e-06
-1.56166e-06
-2.93685e-06
-1.76866e-06
-2.77785e-06
-1.95572e-06
-2.60227e-06
-2.11953e-06
-2.41178e-06
-2.25675e-06
-2.20837e-06
-2.36412e-06
-1.99447e-06
-2.43847e-06
-1.77288e-06
-2.47684e-06
-1.54686e-06
-2.4766e-06
-1.32007e-06
-2.43552e-06
-1.09656e-06
-2.3519e-06
-8.80754e-07
-2.2247e-06
-6.77369e-07
-2.05361e-06
-4.91363e-07
-1.83919e-06
-3.27837e-07
-1.58294e-06
-1.91942e-07
-1.28731e-06
-8.87688e-08
-9.55773e-07
-2.32434e-08
-5.92746e-07
-2.03864e-07
-3.6456e-06
-7.47844e-08
-3.6263e-06
-3.57422e-07
-3.58605e-06
-6.38227e-07
-3.52481e-06
-9.14392e-07
-3.44263e-06
-1.18298e-06
-3.33971e-06
-1.4409e-06
-3.21647e-06
-1.68491e-06
-3.07351e-06
-1.91162e-06
-2.91171e-06
-2.11751e-06
-2.73228e-06
-2.29896e-06
-2.53676e-06
-2.45228e-06
-2.32709e-06
-2.57379e-06
-2.10567e-06
-2.6599e-06
-1.87533e-06
-2.70718e-06
-1.63942e-06
-2.71251e-06
-1.40175e-06
-2.67319e-06
-1.16662e-06
-2.58703e-06
-9.38761e-07
-2.45256e-06
-7.23271e-07
-2.2691e-06
-5.25556e-07
-2.03691e-06
-3.51219e-07
-1.75728e-06
-2.05947e-07
-1.43258e-06
-9.53866e-08
-1.06633e-06
-2.50174e-08
-6.63116e-07
-2.28881e-07
-3.77251e-06
-7.16706e-08
-3.75481e-06
-3.75118e-07
-3.71608e-06
-6.76957e-07
-3.65616e-06
-9.74309e-07
-3.57501e-06
-1.26413e-06
-3.47268e-06
-1.54322e-06
-3.34944e-06
-1.80815e-06
-3.20573e-06
-2.05533e-06
-3.04227e-06
-2.28097e-06
-2.8601e-06
-2.48113e-06
-2.66062e-06
-2.65175e-06
-2.44569e-06
-2.78872e-06
-2.21762e-06
-2.88797e-06
-1.97925e-06
-2.94555e-06
-1.73399e-06
-2.95778e-06
-1.48579e-06
-2.92138e-06
-1.23919e-06
-2.83364e-06
-9.99216e-07
-2.69253e-06
-7.71389e-07
-2.49693e-06
-5.61595e-07
-2.2467e-06
-3.75987e-07
-1.94288e-06
-2.20852e-07
-1.58772e-06
-1.02463e-07
-1.18472e-06
-2.69242e-08
-7.38654e-07
-2.55805e-07
-3.88695e-06
-6.67861e-08
-3.87119e-06
-3.90871e-07
-3.83451e-06
-7.13641e-07
-3.77665e-06
-1.03217e-06
-3.69742e-06
-1.34336e-06
-3.59674e-06
-1.64389e-06
-3.47468e-06
-1.93021e-06
-3.3315e-06
-2.19851e-06
-3.16772e-06
-2.44476e-06
-2.98416e-06
-2.66469e-06
-2.78207e-06
-2.85385e-06
-2.56311e-06
-3.00767e-06
-2.32952e-06
-3.12156e-06
-2.08408e-06
-3.19099e-06
-1.83021e-06
-3.21164e-06
-1.57201e-06
-3.17958e-06
-1.3142e-06
-3.09144e-06
-1.06217e-06
-2.94457e-06
-8.21828e-07
-2.73726e-06
-5.99606e-07
-2.46893e-06
-4.0226e-07
-2.14023e-06
-2.36747e-07
-1.75323e-06
-1.10046e-07
-1.31142e-06
-2.8979e-08
-8.19721e-07
-2.84784e-07
-3.98573e-06
-6.00343e-08
-3.97225e-06
-4.04347e-07
-3.93819e-06
-7.47708e-07
-3.88317e-06
-1.08719e-06
-3.80688e-06
-1.41966e-06
-3.70905e-06
-1.74172e-06
-3.58955e-06
-2.04971e-06
-3.44839e-06
-2.33966e-06
-3.28586e-06
-2.60729e-06
-3.10255e-06
-2.848e-06
-2.89944e-06
-3.05696e-06
-2.678e-06
-3.22911e-06
-2.4403e-06
-3.35927e-06
-2.18901e-06
-3.44227e-06
-1.92755e-06
-3.4731e-06
-1.66008e-06
-3.44705e-06
-1.39154e-06
-3.35998e-06
-1.12761e-06
-3.2085e-06
-8.74672e-07
-2.9902e-06
-6.39711e-07
-2.70389e-06
-4.30159e-07
-2.34978e-06
-2.53724e-07
-1.92967e-06
-1.1819e-07
-1.44696e-06
-3.11986e-08
-9.06713e-07
-3.15983e-07
-4.06516e-06
-5.1362e-08
-4.05429e-06
-4.15221e-07
-4.02344e-06
-7.7856e-07
-3.97214e-06
-1.13849e-06
-3.8999e-06
-1.49189e-06
-3.80628e-06
-1.83535e-06
-3.69088e-06
-2.16511e-06
-3.55348e-06
-2.47706e-06
-3.39406e-06
-2.76671e-06
-3.2129e-06
-3.02916e-06
-3.0107e-06
-3.25916e-06
-2.78866e-06
-3.45115e-06
-2.5486e-06
-3.59934e-06
-2.29303e-06
-3.69784e-06
-2.02528e-06
-3.74084e-06
-1.74956e-06
-3.72277e-06
-1.47097e-06
-3.63858e-06
-1.19549e-06
-3.48398e-06
-9.29978e-07
-3.25571e-06
-6.82026e-07
-2.95184e-06
-4.59809e-07
-2.572e-06
-2.71885e-07
-2.11759e-06
-1.26955e-07
-1.59189e-06
-3.36023e-08
-1.00007e-06
-3.49585e-07
-4.12103e-06
-4.07707e-08
-4.11306e-06
-4.23184e-07
-4.08605e-06
-8.05576e-07
-4.03939e-06
-1.18515e-06
-3.97244e-06
-1.55884e-06
-3.88452e-06
-1.92326e-06
-3.77499e-06
-2.27463e-06
-3.64332e-06
-2.60874e-06
-3.48914e-06
-2.92089e-06
-3.31239e-06
-3.20591e-06
-3.11339e-06
-3.45815e-06
-2.893e-06
-3.67154e-06
-2.65272e-06
-3.83962e-06
-2.39481e-06
-3.95575e-06
-2.12246e-06
-4.01319e-06
-1.83984e-06
-4.0054e-06
-1.55215e-06
-3.92627e-06
-1.26569e-06
-3.77044e-06
-9.87777e-07
-3.53362e-06
-7.26664e-07
-3.21295e-06
-4.91347e-07
-2.80732e-06
-2.91344e-07
-2.31759e-06
-1.36408e-07
-1.74682e-06
-3.62124e-08
-1.10026e-06
-3.85798e-07
-4.14855e-06
-2.8328e-08
-4.14378e-06
-4.27955e-07
-4.12123e-06
-8.28124e-07
-4.0802e-06
-1.22618e-06
-4.01986e-06
-1.61919e-06
-3.9393e-06
-2.00382e-06
-3.8376e-06
-2.37634e-06
-3.71387e-06
-2.73246e-06
-3.56738e-06
-3.06738e-06
-3.39764e-06
-3.37565e-06
-3.20453e-06
-3.65126e-06
-2.98847e-06
-3.88759e-06
-2.75056e-06
-4.07754e-06
-2.49272e-06
-4.21359e-06
-2.21788e-06
-4.28803e-06
-1.93009e-06
-4.29319e-06
-1.63462e-06
-4.22174e-06
-1.33801e-06
-4.06704e-06
-1.04807e-06
-3.82356e-06
-7.7374e-07
-3.48728e-06
-5.24926e-07
-3.05613e-06
-3.12236e-07
-2.53028e-06
-1.46631e-07
-1.91243e-06
-3.90558e-08
-1.20784e-06
-4.24853e-07
-4.1424e-06
-1.41792e-08
-4.14105e-06
-4.29297e-07
-4.1236e-06
-8.45575e-07
-4.08922e-06
-1.26057e-06
-4.0369e-06
-1.67151e-06
-3.96549e-06
-2.07523e-06
-3.87377e-06
-2.46806e-06
-3.76047e-06
-2.84576e-06
-3.62442e-06
-3.20342e-06
-3.46466e-06
-3.53541e-06
-3.28056e-06
-3.83536e-06
-3.072e-06
-4.09615e-06
-2.83956e-06
-4.30998e-06
-2.5847e-06
-4.46844e-06
-2.31e-06
-4.56273e-06
-2.01927e-06
-4.58393e-06
-1.71775e-06
-4.52326e-06
-1.41218e-06
-4.37261e-06
-1.11083e-06
-4.12491e-06
-8.23371e-07
-3.77474e-06
-5.60721e-07
-3.31878e-06
-3.34717e-07
-2.75629e-06
-1.57723e-07
-2.08942e-06
-4.21653e-08
-1.32339e-06
-4.67019e-07
-4.09664e-06
1.4422e-09
-4.09891e-06
-4.27029e-07
-4.08716e-06
-8.57323e-07
-4.06047e-06
-1.28726e-06
-4.01765e-06
-1.71432e-06
-3.95731e-06
-2.13556e-06
-3.87789e-06
-2.54748e-06
-3.77774e-06
-2.94591e-06
-3.65522e-06
-3.32595e-06
-3.50881e-06
-3.68183e-06
-3.33728e-06
-4.00689e-06
-3.13989e-06
-4.29354e-06
-2.91659e-06
-4.53328e-06
-2.66825e-06
-4.71678e-06
-2.39691e-06
-4.83407e-06
-2.10604e-06
-4.8748e-06
-1.80072e-06
-4.82858e-06
-1.48781e-06
-4.68552e-06
-1.17598e-06
-4.43674e-06
-8.7568e-07
-4.07504e-06
-5.98936e-07
-3.59552e-06
-3.58981e-07
-2.99624e-06
-1.69805e-07
-2.2786e-06
-4.55822e-08
-1.44762e-06
-5.12601e-07
-4.00476e-06
1.82064e-08
-4.01075e-06
-4.21039e-07
-4.00527e-06
-8.62798e-07
-3.98731e-06
-1.30522e-06
-3.95551e-06
-1.74612e-06
-3.90824e-06
-2.18283e-06
-3.84362e-06
-2.6121e-06
-3.75957e-06
-3.02996e-06
-3.65394e-06
-3.43157e-06
-3.52463e-06
-3.81114e-06
-3.36973e-06
-4.16179e-06
-3.18775e-06
-4.47551e-06
-2.97789e-06
-4.74314e-06
-2.74025e-06
-4.95442e-06
-2.47621e-06
-5.09811e-06
-2.18869e-06
-5.16232e-06
-1.88245e-06
-5.13482e-06
-1.56433e-06
-5.00364e-06
-1.24338e-06
-4.7577e-06
-9.30798e-07
-4.38762e-06
-6.39816e-07
-3.8865e-06
-3.85265e-07
-3.25079e-06
-1.83032e-07
-2.48083e-06
-4.93589e-08
-1.58129e-06
-5.6196e-07
-3.85966e-06
3.56829e-08
-3.8694e-06
-4.11299e-07
-3.8707e-06
-8.61496e-07
-3.86247e-06
-1.31346e-06
-3.84321e-06
-1.76538e-06
-3.81107e-06
-2.21498e-06
-3.76383e-06
-2.65934e-06
-3.69901e-06
-3.09478e-06
-3.61392e-06
-3.51666e-06
-3.50583e-06
-3.91923e-06
-3.37208e-06
-4.29554e-06
-3.21034e-06
-4.63725e-06
-3.01889e-06
-4.93459e-06
-2.79692e-06
-5.17639e-06
-2.54491e-06
-5.35012e-06
-2.26504e-06
-5.4422e-06
-1.96153e-06
-5.43833e-06
-1.64103e-06
-5.32414e-06
-1.31282e-06
-5.08592e-06
-9.88856e-07
-4.71158e-06
-6.83659e-07
-4.1917e-06
-4.13869e-07
-3.52058e-06
-1.97599e-07
-2.6971e-06
-5.35632e-08
-1.72533e-06
-6.15523e-07
-3.65369e-06
5.33409e-08
-3.66711e-06
-3.97876e-07
-3.67561e-06
-8.52997e-07
-3.67804e-06
-1.31102e-06
-3.6728e-06
-1.77062e-06
-3.65782e-06
-2.22996e-06
-3.63061e-06
-2.68656e-06
-3.58827e-06
-3.13712e-06
-3.52759e-06
-3.57733e-06
-3.44517e-06
-4.00166e-06
-3.33754e-06
-4.40317e-06
-3.20145e-06
-4.77334e-06
-3.03411e-06
-5.10193e-06
-2.8336e-06
-5.3769e-06
-2.59928e-06
-5.58444e-06
-2.33231e-06
-5.70917e-06
-2.03611e-06
-5.73452e-06
-1.71689e-06
-5.64336e-06
-1.38396e-06
-5.41884e-06
-1.04998e-06
-5.04556e-06
-7.30822e-07
-4.51086e-06
-4.45172e-07
-3.80623e-06
-2.13762e-07
-2.92851e-06
-5.82843e-08
-1.8808e-06
-6.73807e-07
-3.37869e-06
7.05575e-08
-3.39562e-06
-3.80943e-07
-3.41162e-06
-8.36997e-07
-3.42553e-06
-1.29712e-06
-3.43567e-06
-1.76048e-06
-3.43983e-06
-2.2258e-06
-3.43525e-06
-2.69114e-06
-3.41868e-06
-3.15369e-06
-3.3864e-06
-3.6096e-06
-3.33434e-06
-4.05372e-06
-3.25821e-06
-4.4793e-06
-3.15373e-06
-4.87783e-06
-3.01692e-06
-5.23874e-06
-2.84456e-06
-5.54927e-06
-2.63462e-06
-5.79437e-06
-2.38692e-06
-5.95686e-06
-2.10375e-06
-6.0177e-06
-1.7905e-06
-5.9566e-06
-1.45629e-06
-5.75305e-06
-1.11428e-06
-5.38757e-06
-7.81742e-07
-4.8434e-06
-4.79659e-07
-4.10832e-06
-2.31855e-07
-3.17632e-06
-6.3641e-08
-2.04902e-06
-7.37448e-07
-3.02607e-06
8.66334e-08
-3.04623e-06
-3.6078e-07
-3.0699e-06
-8.13331e-07
-3.09594e-06
-1.27107e-06
-3.12265e-06
-1.73377e-06
-3.14773e-06
-2.20072e-06
-3.16825e-06
-2.67062e-06
-3.18065e-06
-3.14129e-06
-3.18077e-06
-3.60949e-06
-3.1639e-06
-4.07058e-06
-3.12493e-06
-4.51827e-06
-3.0585e-06
-4.94426e-06
-2.95937e-06
-5.33788e-06
-2.82277e-06
-5.68586e-06
-2.64503e-06
-5.97211e-06
-2.42427e-06
-6.17763e-06
-2.16118e-06
-6.28079e-06
-1.85993e-06
-6.25785e-06
-1.529e-06
-6.08398e-06
-1.1818e-06
-5.73478e-06
-8.36935e-07
-5.18826e-06
-5.17951e-07
-4.4273e-06
-2.5232e-07
-3.44195e-06
-6.97938e-08
-2.23154e-06
-8.07242e-07
-2.58689e-06
1.00821e-07
-2.60989e-06
-3.37776e-07
-2.64123e-06
-7.81996e-07
-2.67984e-06
-1.23246e-06
-2.72406e-06
-1.68954e-06
-2.77158e-06
-2.1532e-06
-2.81938e-06
-2.62282e-06
-2.86371e-06
-3.09697e-06
-2.90005e-06
-3.57315e-06
-2.92316e-06
-4.04747e-06
-2.92714e-06
-4.51429e-06
-2.90558e-06
-4.96581e-06
-2.85186e-06
-5.3916e-06
-2.75956e-06
-5.77817e-06
-2.62306e-06
-6.10861e-06
-2.43834e-06
-6.36234e-06
-2.20402e-06
-6.51511e-06
-1.92242e-06
-6.53944e-06
-1.60082e-06
-6.40558e-06
-1.25242e-06
-6.08318e-06
-8.97002e-07
-5.54368e-06
-5.60849e-07
-4.76345e-06
-2.75752e-07
-3.72704e-06
-7.69637e-08
-2.43033e-06
-8.84206e-07
-2.05203e-06
1.12361e-07
-2.07739e-06
-3.12415e-07
-2.1162e-06
-7.43181e-07
-2.16755e-06
-1.18112e-06
-2.22987e-06
-1.62722e-06
-2.30094e-06
-2.08213e-06
-2.37777e-06
-2.54599e-06
-2.45654e-06
-3.0182e-06
-2.53254e-06
-3.49714e-06
-2.60013e-06
-3.97988e-06
-2.65274e-06
-4.46168e-06
-2.683e-06
-4.93556e-06
-2.68291e-06
-5.39169e-06
-2.64426e-06
-5.81682e-06
-2.55923e-06
-6.19364e-06
-2.42128e-06
-6.50029e-06
-2.2263e-06
-6.7101e-06
-1.97404e-06
-6.7917e-06
-1.66977e-06
-6.70986e-06
-1.32578e-06
-6.42717e-06
-9.626e-07
-5.90686e-06
-6.09376e-07
-5.11668e-06
-3.02954e-07
-4.03346e-06
-8.54595e-08
-2.64783e-06
-9.69665e-07
-1.41234e-06
1.20537e-07
-1.43949e-06
-2.85266e-07
-1.48539e-06
-6.97275e-07
-1.5493e-06
-1.11721e-06
-1.62987e-06
-1.54666e-06
-1.72505e-06
-1.98695e-06
-1.83203e-06
-2.43901e-06
-1.9471e-06
-2.90313e-06
-2.06553e-06
-3.37871e-06
-2.18151e-06
-3.86391e-06
-2.288e-06
-4.35519e-06
-2.37682e-06
-4.84674e-06
-2.43871e-06
-5.32979e-06
-2.46369e-06
-5.79184e-06
-2.44153e-06
-6.21579e-06
-2.36274e-06
-6.57908e-06
-2.21984e-06
-6.853e-06
-2.0091e-06
-7.00244e-06
-1.73269e-06
-6.98627e-06
-1.40094e-06
-6.75892e-06
-1.03437e-06
-6.27343e-06
-6.64831e-07
-5.48622e-06
-3.35028e-07
-4.36327e-06
-9.5723e-08
-2.88713e-06
-1.06539e-06
-6.58865e-07
1.24736e-07
-6.87183e-07
-2.56948e-07
-7.39572e-07
-6.44886e-07
-8.15506e-07
-1.04128e-06
-9.1391e-07
-1.44826e-06
-1.03307e-06
-1.8678e-06
-1.17048e-06
-2.30159e-06
-1.32276e-06
-2.75085e-06
-1.48541e-06
-3.21606e-06
-1.65268e-06
-3.69664e-06
-1.81741e-06
-4.19046e-06
-1.9709e-06
-4.69326e-06
-2.10286e-06
-5.19782e-06
-2.20165e-06
-5.69305e-06
-2.25464e-06
-6.16281e-06
-2.24905e-06
-6.58467e-06
-2.17336e-06
-6.92869e-06
-2.01931e-06
-7.15648e-06
-1.78459e-06
-7.22099e-06
-1.476e-06
-7.06751e-06
-1.11275e-06
-6.63668e-06
-7.28833e-07
-5.87014e-06
-3.73493e-07
-4.71861e-06
-1.08401e-07
-3.15222e-06
-1.17379e-06
2.16885e-07
1.24519e-07
1.88035e-07
-2.28098e-07
1.29987e-07
-5.86838e-07
4.30002e-08
-9.5429e-07
-7.22074e-08
-1.33305e-06
-2.14351e-07
-1.72565e-06
-3.81438e-07
-2.1345e-06
-5.70597e-07
-2.56169e-06
-7.77854e-07
-3.0088e-06
-9.97893e-07
-3.4766e-06
-1.22379e-06
-3.96456e-06
-1.44675e-06
-4.4703e-06
-1.65592e-06
-4.98865e-06
-1.83834e-06
-5.51064e-06
-1.97912e-06
-6.02203e-06
-2.06213e-06
-6.50166e-06
-2.07124e-06
-6.91958e-06
-1.99253e-06
-7.23519e-06
-1.81749e-06
-7.39603e-06
-1.54728e-06
-7.33771e-06
-1.19763e-06
-6.98632e-06
-8.03311e-07
-6.26446e-06
-4.20469e-07
-5.10145e-06
-1.24468e-07
-3.44822e-06
-1.29826e-06
1.22264e-06
1.19695e-07
1.19387e-06
-1.99329e-07
1.1312e-06
-5.24169e-07
1.03459e-06
-8.57681e-07
9.04338e-07
-1.2028e-06
7.41187e-07
-1.5625e-06
5.46469e-07
-1.93978e-06
3.22302e-07
-2.33752e-06
7.18367e-08
-2.75834e-06
-2.00431e-07
-3.20433e-06
-4.88305e-07
-3.67669e-06
-7.83482e-07
-4.17512e-06
-1.07515e-06
-4.69698e-06
-1.34967e-06
-5.23612e-06
-1.59043e-06
-5.78127e-06
-1.77813e-06
-6.31396e-06
-1.89181e-06
-6.8059e-06
-1.91087e-06
-7.21614e-06
-1.81867e-06
-7.48823e-06
-1.6079e-06
-7.54848e-06
-1.28752e-06
-7.3067e-06
-8.9036e-07
-6.66162e-06
-4.78912e-07
-5.5129e-06
-1.45439e-07
-3.7817e-06
-1.4437e-06
2.365e-06
1.10397e-07
2.33685e-06
-1.71187e-07
2.2708e-06
-4.58113e-07
2.16648e-06
-7.5336e-07
2.02373e-06
-1.06005e-06
1.84266e-06
-1.38144e-06
1.62382e-06
-1.72094e-06
1.36835e-06
-2.08206e-06
1.0783e-06
-2.46828e-06
7.56915e-07
-2.88295e-06
4.09129e-07
-3.3289e-06
4.20543e-08
-3.80804e-06
-3.34384e-07
-4.32054e-06
-7.06811e-07
-4.86369e-06
-1.05784e-06
-5.43024e-06
-1.36581e-06
-6.00598e-06
-1.60518e-06
-6.56653e-06
-1.7481e-06
-7.07322e-06
-1.76792e-06
-7.46841e-06
-1.6454e-06
-7.671e-06
-1.37801e-06
-7.5741e-06
-9.91731e-07
-7.0479e-06
-5.52903e-07
-5.95173e-06
-1.73736e-07
-4.16086e-06
-1.61743e-06
3.64905e-06
9.71304e-08
3.62198e-06
-1.44115e-07
3.55395e-06
-3.90083e-07
3.44431e-06
-6.4372e-07
3.29242e-06
-9.08154e-07
3.09772e-06
-1.18674e-06
2.85987e-06
-1.48309e-06
2.5789e-06
-1.80109e-06
2.25549e-06
-2.14486e-06
1.89126e-06
-2.51872e-06
1.48933e-06
-2.92697e-06
1.05485e-06
-3.37356e-06
5.95841e-07
-3.86154e-06
1.24149e-07
-4.392e-06
-3.43537e-07
-4.96256e-06
-7.84685e-07
-5.56484e-06
-1.17038e-06
-6.18084e-06
-1.46586e-06
-6.77773e-06
-1.63322e-06
-7.30105e-06
-1.6376e-06
-7.66662e-06
-1.45861e-06
-7.75309e-06
-1.10742e-06
-7.39908e-06
-6.47834e-07
-6.41132e-06
-2.13321e-07
-4.59538e-06
-1.83075e-06
5.07797e-06
8.08019e-08
5.05228e-06
-1.18425e-07
4.98385e-06
-3.21648e-07
4.87175e-06
-5.31619e-07
4.71489e-06
-7.51297e-07
4.51206e-06
-9.83914e-07
4.26201e-06
-1.23304e-06
3.96359e-06
-1.50266e-06
3.61593e-06
-1.7972e-06
3.21878e-06
-2.12157e-06
2.77293e-06
-2.48112e-06
2.28087e-06
-2.8815e-06
1.74763e-06
-3.3283e-06
1.182e-06
-3.82637e-06
5.97999e-07
-4.37856e-06
1.66732e-08
-4.98351e-06
-5.32172e-07
-5.63199e-06
-1.00882e-06
-6.30109e-06
-1.36437e-06
-6.94549e-06
-1.54558e-06
-7.48541e-06
-1.50676e-06
-7.79192e-06
-1.23218e-06
-7.67366e-06
-7.70008e-07
-6.87349e-06
-2.70714e-07
-5.09467e-06
-2.10147e-06
6.65257e-06
6.27006e-08
6.62845e-06
-9.4304e-08
6.56132e-06
-2.54518e-07
6.45005e-06
-4.20349e-07
6.29317e-06
-5.94417e-07
6.08888e-06
-7.79628e-07
5.83511e-06
-9.79266e-07
5.52954e-06
-1.19709e-06
5.16978e-06
-1.43745e-06
4.75359e-06
-1.70538e-06
4.27916e-06
-2.0067e-06
3.74573e-06
-2.34808e-06
3.15441e-06
-2.73697e-06
2.50937e-06
-3.18133e-06
1.81968e-06
-3.68888e-06
1.10172e-06
-4.26555e-06
3.82195e-07
-4.91246e-06
-2.98517e-07
-5.62038e-06
-8.83915e-07
-6.3601e-06
-1.30235e-06
-7.06698e-06
-1.47629e-06
-7.61797e-06
-1.34726e-06
-7.80269e-06
-9.24096e-07
-7.29665e-06
-3.5637e-07
-5.6624e-06
-2.45784e-06
8.3709e-06
4.4416e-08
8.34846e-06
-7.18586e-08
8.28448e-06
-1.90543e-07
8.17773e-06
-3.1359e-07
8.02645e-06
-4.4314e-07
7.82842e-06
-5.816e-07
7.58089e-06
-7.31742e-07
7.28062e-06
-8.96816e-07
6.92385e-06
-1.08068e-06
6.50647e-06
-1.28799e-06
6.02414e-06
-1.52436e-06
5.47267e-06
-1.79661e-06
4.84864e-06
-2.11294e-06
4.15045e-06
-2.48314e-06
3.38002e-06
-2.91844e-06
2.54547e-06
-3.431e-06
1.66511e-06
-4.0321e-06
7.72861e-07
-4.72813e-06
-7.51343e-08
-5.5121e-06
-7.95009e-07
-6.3471e-06
-1.2763e-06
-7.13668e-06
-1.40167e-06
-7.67733e-06
-1.10373e-06
-7.59458e-06
-4.85031e-07
-6.2811e-06
-2.94287e-06
1.02279e-05
2.76814e-08
1.02073e-05
-5.12055e-08
1.01485e-05
-1.31746e-07
1.00502e-05
-2.1537e-07
9.91076e-06
-3.03653e-07
9.72755e-06
-3.98393e-07
9.4975e-06
-5.01687e-07
9.21672e-06
-6.16043e-07
8.88056e-06
-7.44516e-07
8.48345e-06
-8.90888e-07
8.01899e-06
-1.0599e-06
7.47994e-06
-1.25756e-06
6.85853e-06
-1.49153e-06
6.147e-06
-1.77161e-06
5.33882e-06
-2.11026e-06
4.43086e-06
-2.52305e-06
3.42741e-06
-3.02864e-06
2.34667e-06
-3.64739e-06
1.23094e-06
-4.39637e-06
1.60272e-07
-5.27644e-06
-7.34325e-07
-6.24208e-06
-1.27129e-06
-7.14037e-06
-1.26188e-06
-7.60399e-06
-6.68286e-07
-6.8747e-06
-3.61115e-06
1.22152e-05
1.4131e-08
1.21966e-05
-3.26315e-08
1.21452e-05
-8.03854e-08
1.20599e-05
-1.30032e-07
1.19388e-05
-1.82574e-07
1.17796e-05
-2.39161e-07
1.15791e-05
-3.01155e-07
1.13332e-05
-3.70207e-07
1.10371e-05
-4.48373e-07