/*--------------------------------*- C++ -*----------------------------------*\
| =========                 |                                                 |
| \\      /  F ield         | OpenFOAM: The Open Source CFD Toolbox           |
|  \\    /   O peration     | Version:  v2012                                 |
|   \\  /    A nd           | Website:  www.openfoam.com                      |
|    \\/     M anipulation  |                                                 |
\*---------------------------------------------------------------------------*/
FoamFile
{
    version     2.0;
    format      ascii;
    class       volVectorField;
    location    "0.1";
    object      U;
}
// * * * * * * * * * * * * * * * * * * * * * * * * * * * * * * * * * * * * * //

dimensions      [0 1 -1 0 0 0 0];


internalField   nonuniform List<vector> 
1250
(
(-0.00697731 -7.93422e-06 0)
(-0.00691998 -2.65812e-05 0)
(-0.00680214 -4.49531e-05 0)
(-0.00662518 -6.28049e-05 0)
(-0.00639129 -7.98777e-05 0)
(-0.00610354 -9.58983e-05 0)
(-0.0057659 -0.000110587 0)
(-0.00538325 -0.000123656 0)
(-0.00496137 -0.000134821 0)
(-0.00450691 -0.000143799 0)
(-0.00402741 -0.000150313 0)
(-0.00353122 -0.000154095 0)
(-0.00302746 -0.000154895 0)
(-0.00252592 -0.000152475 0)
(-0.00203699 -0.000146626 0)
(-0.00157152 -0.000137161 0)
(-0.00114065 -0.000123936 0)
(-0.000755643 -0.000106856 0)
(-0.000427502 -8.59162e-05 0)
(-0.000166545 -6.1294e-05 0)
(1.84394e-05 -3.35691e-05 0)
(0.000121542 -4.20439e-06 0)
(0.000142901 2.33895e-05 0)
(9.86178e-05 4.12395e-05 0)
(3.17766e-05 3.17084e-05 0)
(-0.0196762 -5.2959e-05 0)
(-0.0195182 -0.000172217 0)
(-0.0191957 -0.000289604 0)
(-0.0187126 -0.000403469 0)
(-0.018075 -0.000512123 0)
(-0.0172916 -0.000613827 0)
(-0.0163732 -0.000706817 0)
(-0.0153333 -0.000789321 0)
(-0.0141876 -0.000859592 0)
(-0.0129543 -0.000915927 0)
(-0.0116536 -0.000956689 0)
(-0.010308 -0.000980353 0)
(-0.00894176 -0.000985532 0)
(-0.00758076 -0.000971022 0)
(-0.00625215 -0.000935854 0)
(-0.00498394 -0.000879365 0)
(-0.0038044 -0.000801292 0)
(-0.00274129 -0.000701932 0)
(-0.00182089 -0.000582414 0)
(-0.00106639 -0.000445202 0)
(-0.000495757 -0.00029507 0)
(-0.000118336 -0.000140924 0)
(7.05565e-05 9.40953e-07 0)
(0.000101401 0.000100304 0)
(4.16256e-05 9.86295e-05 0)
(-0.0313542 -0.000150155 0)
(-0.0311075 -0.000481736 0)
(-0.030606 -0.000807962 0)
(-0.0298558 -0.00112418 0)
(-0.0288666 -0.00142565 0)
(-0.0276517 -0.00170758 0)
(-0.0262282 -0.0019651 0)
(-0.0246168 -0.00219339 0)
(-0.0228418 -0.00238771 0)
(-0.020931 -0.00254348 0)
(-0.0189156 -0.00265636 0)
(-0.0168296 -0.00272237 0)
(-0.0147099 -0.00273798 0)
(-0.0125955 -0.00270026 0)
(-0.0105271 -0.00260703 0)
(-0.00854618 -0.00245711 0)
(-0.00669423 -0.00225064 0)
(-0.00501142 -0.00198946 0)
(-0.00353499 -0.00167795 0)
(-0.00229705 -0.00132413 0)
(-0.00132164 -0.000941703 0)
(-0.000620662 -0.000553422 0)
(-0.000188246 -0.000196103 0)
(6.40116e-06 7.08994e-05 0)
(2.49648e-05 0.00014451 0)
(-0.0422006 -0.000289096 0)
(-0.0418755 -0.000920155 0)
(-0.0412164 -0.00154086 0)
(-0.0402312 -0.00214233 0)
(-0.0389326 -0.00271556 0)
(-0.0373381 -0.00325145 0)
(-0.0354699 -0.00374088 0)
(-0.0333551 -0.0041748 0)
(-0.031025 -0.00454438 0)
(-0.0285158 -0.00484113 0)
(-0.0258676 -0.00505711 0)
(-0.0231242 -0.00518509 0)
(-0.0203328 -0.00521877 0)
(-0.0175432 -0.00515312 0)
(-0.0148069 -0.00498465 0)
(-0.0121764 -0.00471189 0)
(-0.00970369 -0.00433595 0)
(-0.00743855 -0.00386135 0)
(-0.00542693 -0.00329724 0)
(-0.00370823 -0.00265925 0)
(-0.0023123 -0.00197231 0)
(-0.00125528 -0.00127511 0)
(-0.000534583 -0.000625872 0)
(-0.00012905 -0.000111495 0)
(-7.14552e-07 0.00012811 0)
(-0.0523701 -0.000463491 0)
(-0.0519758 -0.00146776 0)
(-0.0511769 -0.0024554 0)
(-0.0499831 -0.00341233 0)
(-0.0484095 -0.00432429 0)
(-0.0464772 -0.00517692 0)
(-0.0442128 -0.00595585 0)
(-0.0416484 -0.00664693 0)
(-0.0388218 -0.00723637 0)
(-0.0357756 -0.00771101 0)
(-0.0325576 -0.0080586 0)
(-0.0292197 -0.00826808 0)
(-0.0258178 -0.00833003 0)
(-0.0224104 -0.00823706 0)
(-0.0190582 -0.00798435 0)
(-0.0158227 -0.00757038 0)
(-0.0127644 -0.00699773 0)
(-0.0099415 -0.00627433 0)
(-0.00740752 -0.00541504 0)
(-0.00520889 -0.00444401 0)
(-0.00338212 -0.003398 0)
(-0.00194984 -0.00233124 0)
(-0.00091671 -0.0013213 0)
(-0.000277638 -0.000477708 0)
(-2.79947e-05 3.39906e-05 0)
(-0.061996 -0.000669178 0)
(-0.0615406 -0.0021134 0)
(-0.060617 -0.00353367 0)
(-0.0592362 -0.00490985 0)
(-0.0574156 -0.00622159 0)
(-0.055179 -0.00744844 0)
(-0.0525567 -0.00857002 0)
(-0.0495851 -0.00956626 0)
(-0.0463071 -0.0104177 0)
(-0.042771 -0.0111059 0)
(-0.0390309 -0.0116136 0)
(-0.0351455 -0.0119256 0)
(-0.0311779 -0.0120288 0)
(-0.0271942 -0.0119134 0)
(-0.0232628 -0.0115731 0)
(-0.0194528 -0.0110065 0)
(-0.0158326 -0.0102179 0)
(-0.012468 -0.00921888 0)
(-0.00941986 -0.00803041 0)
(-0.00674209 -0.00668521 0)
(-0.00447917 -0.00523144 0)
(-0.00266241 -0.00373742 0)
(-0.00130664 -0.00229703 0)
(-0.000426501 -0.0010371 0)
(-5.41091e-05 -0.00013913 0)
(-0.0711922 -0.000901745 0)
(-0.0706829 -0.00284672 0)
(-0.0696474 -0.0047596 0)
(-0.0680976 -0.00661347 0)
(-0.0660525 -0.00838121 0)
(-0.0635384 -0.0100356 0)
(-0.0605884 -0.0115494 0)
(-0.0572426 -0.0128962 0)
(-0.0535479 -0.0140502 0)
(-0.0495575 -0.0149869 0)
(-0.0453308 -0.0156838 0)
(-0.0409323 -0.0161208 0)
(-0.0364312 -0.0162812 0)
(-0.0319002 -0.016152 0)
(-0.0274147 -0.0157256 0)
(-0.0230508 -0.0150004 0)
(-0.0188841 -0.0139824 0)
(-0.0149879 -0.012687 0)
(-0.0114309 -0.0111409 0)
(-0.00827512 -0.00938483 0)
(-0.00557445 -0.00747735 0)
(-0.00337059 -0.00549889 0)
(-0.00169056 -0.00355645 0)
(-0.000570203 -0.00178944 0)
(-7.82331e-05 -0.000388357 0)
(-0.0800545 -0.00115656 0)
(-0.0794983 -0.00365823 0)
(-0.0783619 -0.00611902 0)
(-0.076658 -0.00850473 0)
(-0.0744071 -0.0107808 0)
(-0.0716369 -0.0129127 0)
(-0.068383 -0.0148661 0)
(-0.0646885 -0.016607 0)
(-0.0606037 -0.0181031 0)
(-0.0561858 -0.0193233 0)
(-0.0514985 -0.0202392 0)
(-0.0466116 -0.0208256 0)
(-0.0415995 -0.0210613 0)
(-0.0365412 -0.0209303 0)
(-0.0315181 -0.020423 0)
(-0.0266133 -0.0195375 0)
(-0.0219095 -0.0182811 0)
(-0.0174877 -0.0166725 0)
(-0.0134249 -0.0147434 0)
(-0.00979249 -0.0125421 0)
(-0.00665457 -0.0101358 0)
(-0.00406467 -0.00761497 0)
(-0.00206313 -0.00509703 0)
(-0.000707198 -0.00273023 0)
(-0.000100364 -0.000709679 0)
(-0.0886629 -0.00142887 0)
(-0.0880663 -0.00453937 0)
(-0.0868389 -0.00759986 0)
(-0.0849939 -0.0105684 0)
(-0.0825524 -0.0134025 0)
(-0.0795436 -0.0160598 0)
(-0.076005 -0.018498 0)
(-0.0719819 -0.0206759 0)
(-0.0675272 -0.0225533 0)
(-0.0627017 -0.0240925 0)
(-0.057573 -0.0252584 0)
(-0.052215 -0.0260203 0)
(-0.0467075 -0.026352 0)
(-0.0411347 -0.0262339 0)
(-0.0355843 -0.025654 0)
(-0.0301461 -0.0246094 0)
(-0.0249102 -0.0231083 0)
(-0.0199657 -0.0211719 0)
(-0.0153985 -0.0188363 0)
(-0.0112901 -0.0161557 0)
(-0.0077161 -0.0132049 0)
(-0.00474258 -0.0100826 0)
(-0.00242377 -0.00691391 0)
(-0.000837866 -0.00385363 0)
(-0.00012082 -0.00109916 0)
(-0.0970825 -0.00171365 0)
(-0.0964522 -0.00548218 0)
(-0.0951429 -0.00919147 0)
(-0.093168 -0.0127913 0)
(-0.0905492 -0.0162312 0)
(-0.0873167 -0.0194602 0)
(-0.083509 -0.022428 0)
(-0.0791732 -0.025085 0)
(-0.0743647 -0.0273834 0)
(-0.0691468 -0.0292778 0)
(-0.0635906 -0.0307263 0)
(-0.0577739 -0.0316914 0)
(-0.0517811 -0.032142 0)
(-0.0457018 -0.0320539 0)
(-0.0396297 -0.031412 0)
(-0.0336615 -0.0302119 0)
(-0.0278951 -0.0284618 0)
(-0.022428 -0.0261843 0)
(-0.017356 -0.0234191 0)
(-0.0127713 -0.0202251 0)
(-0.00876175 -0.0166831 0)
(-0.0054067 -0.0128982 0)
(-0.00277447 -0.00900211 0)
(-0.000963478 -0.00515424 0)
(-0.000140014 -0.00155352 0)
(-0.105365 -0.00200551 0)
(-0.104707 -0.00647895 0)
(-0.103325 -0.010884 0)
(-0.101231 -0.015162 0)
(-0.0984469 -0.0192539 0)
(-0.0950035 -0.0231001 0)
(-0.0909402 -0.0266416 0)
(-0.0863054 -0.0298203 0)
(-0.081156 -0.0325799 0)
(-0.0755577 -0.0348669 0)
(-0.0695844 -0.0366317 0)
(-0.0633178 -0.03783 0)
(-0.0568464 -0.0384244 0)
(-0.050265 -0.0383856 0)
(-0.0436737 -0.0376945 0)
(-0.0371759 -0.0363443 0)
(-0.0308778 -0.034342 0)
(-0.0248861 -0.031711 0)
(-0.0193069 -0.0284931 0)
(-0.0142439 -0.0247508 0)
(-0.00979783 -0.0205694 0)
(-0.00606188 -0.0160595 0)
(-0.0031185 -0.0113578 0)
(-0.00108568 -0.00662795 0)
(-0.000158365 -0.00207038 0)
(-0.113548 -0.00229865 0)
(-0.112871 -0.00752187 0)
(-0.111424 -0.0126679 0)
(-0.109221 -0.0176695 0)
(-0.106283 -0.0224586 0)
(-0.102641 -0.0269669 0)
(-0.0983348 -0.0311262 0)
(-0.093413 -0.0348695 0)
(-0.0879342 -0.0381313 0)
(-0.0819658 -0.0408496 0)
(-0.0755841 -0.0429664 0)
(-0.0688741 -0.0444298 0)
(-0.0619286 -0.045195 0)
(-0.0548476 -0.0452269 0)
(-0.047737 -0.0445014 0)
(-0.0407079 -0.0430081 0)
(-0.0338749 -0.0407518 0)
(-0.0273544 -0.0377554 0)
(-0.0212635 -0.0340615 0)
(-0.0157182 -0.029735 0)
(-0.0108327 -0.0248649 0)
(-0.00671426 -0.019566 0)
(-0.00345974 -0.0139794 0)
(-0.00120621 -0.00827245 0)
(-0.000176264 -0.0026483 0)
(-0.121658 -0.00258678 0)
(-0.120968 -0.00860285 0)
(-0.119466 -0.0145336 0)
(-0.117165 -0.0203029 0)
(-0.114085 -0.0258337 0)
(-0.110257 -0.0310486 0)
(-0.105719 -0.0358699 0)
(-0.100523 -0.040221 0)
(-0.0947256 -0.0440273 0)
(-0.0883968 -0.0472172 0)
(-0.0816147 -0.0497236 0)
(-0.0744673 -0.0514858 0)
(-0.0670512 -0.0524512 0)
(-0.0594715 -0.0525775 0)
(-0.0518406 -0.0518344 0)
(-0.044277 -0.0502067 0)
(-0.0369041 -0.0476958 0)
(-0.0298489 -0.0443226 0)
(-0.0232398 -0.0401295 0)
(-0.0172059 -0.0351826 0)
(-0.0118755 -0.0295732 0)
(-0.00737051 -0.0234197 0)
(-0.00380224 -0.0168673 0)
(-0.00132683 -0.0100874 0)
(-0.00019407 -0.00328682 0)
(-0.129706 -0.00286308 0)
(-0.129012 -0.00971325 0)
(-0.127465 -0.0164707 0)
(-0.125077 -0.0230507 0)
(-0.121868 -0.0293669 0)
(-0.117866 -0.0353324 0)
(-0.113111 -0.0408601 0)
(-0.107653 -0.0458634 0)
(-0.101549 -0.0502575 0)
(-0.0948703 -0.0539607 0)
(-0.0876963 -0.0568962 0)
(-0.0801176 -0.0589935 0)
(-0.0722345 -0.060191 0)
(-0.0641572 -0.0604377 0)
(-0.0560043 -0.0596962 0)
(-0.0479021 -0.0579448 0)
(-0.0399834 -0.0551802 0)
(-0.0323858 -0.0514199 0)
(-0.0252502 -0.0467046 0)
(-0.0187192 -0.0411005 0)
(-0.0129359 -0.0347003 0)
(-0.00803743 -0.0276254 0)
(-0.00415005 -0.0200247 0)
(-0.00144921 -0.0120744 0)
(-0.000212106 -0.00398639 0)
(-0.137693 -0.0031202 0)
(-0.137003 -0.0108437 0)
(-0.135422 -0.0184683 0)
(-0.13296 -0.0259005 0)
(-0.129635 -0.0330448 0)
(-0.125475 -0.0398047 0)
(-0.120518 -0.0460832 0)
(-0.114812 -0.0517834 0)
(-0.108415 -0.0568099 0)
(-0.101399 -0.0610702 0)
(-0.093843 -0.0644765 0)
(-0.0858406 -0.0669477 0)
(-0.0774955 -0.0684118 0)
(-0.0689223 -0.068808 0)
(-0.0602461 -0.0680899 0)
(-0.0516011 -0.0662279 0)
(-0.0431298 -0.0632124 0)
(-0.0349812 -0.059056 0)
(-0.0273089 -0.0537963 0)
(-0.0202701 -0.0474982 0)
(-0.0140233 -0.040255 0)
(-0.00872167 -0.0321905 0)
(-0.00450705 -0.0234574 0)
(-0.00157491 -0.0142372 0)
(-0.000230668 -0.00474829 0)
(-0.145605 -0.00335029 0)
(-0.144929 -0.011984 0)
(-0.143326 -0.0205141 0)
(-0.140803 -0.0288383 0)
(-0.137378 -0.0368521 0)
(-0.133076 -0.0444496 0)
(-0.127934 -0.0515233 0)
(-0.121998 -0.0579657 0)
(-0.115326 -0.0636704 0)
(-0.107987 -0.0685332 0)
(-0.100062 -0.0724545 0)
(-0.0916464 -0.0753412 0)
(-0.0828462 -0.0771095 0)
(-0.0737808 -0.0776874 0)
(-0.0645812 -0.0770177 0)
(-0.0553899 -0.0750614 0)
(-0.0463593 -0.0718005 0)
(-0.03765 -0.067241 0)
(-0.0294296 -0.061416 0)
(-0.0218702 -0.0543876 0)
(-0.0151468 -0.0462489 0)
(-0.00942965 -0.0371253 0)
(-0.004877 -0.0271737 0)
(-0.00170544 -0.0165813 0)
(-0.000250028 -0.00557463 0)
(-0.153413 -0.00354503 0)
(-0.152761 -0.013123 0)
(-0.151149 -0.0225943 0)
(-0.148582 -0.0318482 0)
(-0.145075 -0.0407714 0)
(-0.140652 -0.0492483 0)
(-0.135346 -0.0571612 0)
(-0.129201 -0.0643917 0)
(-0.122273 -0.0708215 0)
(-0.11463 -0.0763341 0)
(-0.106354 -0.080817 0)
(-0.0975385 -0.0841639 0)
(-0.0882936 -0.0862777 0)
(-0.0787422 -0.0870733 0)
(-0.0690214 -0.086481 0)
(-0.0592817 -0.0844502 0)
(-0.0496856 -0.0809526 0)
(-0.0404061 -0.0759859 0)
(-0.0316249 -0.0695765 0)
(-0.0235304 -0.0617826 0)
(-0.0163152 -0.0526958 0)
(-0.0101675 -0.0424427 0)
(-0.00526345 -0.0311841 0)
(-0.00184221 -0.0191139 0)
(-0.000270439 -0.00646825 0)
(-0.161075 -0.00369576 0)
(-0.160458 -0.0142485 0)
(-0.158851 -0.0246934 0)
(-0.156258 -0.0349118 0)
(-0.15269 -0.044782 0)
(-0.148169 -0.0541787 0)
(-0.142724 -0.0629742 0)
(-0.136396 -0.0710385 0)
(-0.129238 -0.0782411 0)
(-0.121316 -0.0844526 0)
(-0.112709 -0.0895464 0)
(-0.103513 -0.0934016 0)
(-0.0938382 -0.0959061 0)
(-0.0838112 -0.0969598 0)
(-0.0735746 -0.0964785 0)
(-0.0632867 -0.0943977 0)
(-0.0531203 -0.0906765 0)
(-0.0432613 -0.085302 0)
(-0.0339064 -0.0782921 0)
(-0.025261 -0.0696991 0)
(-0.0175365 -0.0596121 0)
(-0.010941 -0.048158 0)
(-0.00566979 -0.0355017 0)
(-0.00198656 -0.0218442 0)
(-0.000292142 -0.0074327 0)
(-0.168531 -0.00379362 0)
(-0.16796 -0.0153472 0)
(-0.166375 -0.0267941 0)
(-0.163776 -0.0380083 0)
(-0.160173 -0.04886 0)
(-0.155581 -0.0592147 0)
(-0.150026 -0.0689344 0)
(-0.143546 -0.0778779 0)
(-0.136189 -0.0859019 0)
(-0.128018 -0.092863 0)
(-0.119109 -0.0986196 0)
(-0.109558 -0.103035 0)
(-0.0994735 -0.10598 0)
(-0.0889864 -0.107337 0)
(-0.0782438 -0.107006 0)
(-0.0674114 -0.104905 0)
(-0.0566724 -0.100979 0)
(-0.0462258 -0.0952003 0)
(-0.0362841 -0.0875774 0)
(-0.0270711 -0.0781544 0)
(-0.0188186 -0.0670161 0)
(-0.0117558 -0.054289 0)
(-0.0060993 -0.0401416 0)
(-0.00213981 -0.0247828 0)
(-0.000315375 -0.00847224 0)
(-0.175705 -0.0038297 0)
(-0.175191 -0.0164049 0)
(-0.173646 -0.028877 0)
(-0.171065 -0.0411137 0)
(-0.167453 -0.0529773 0)
(-0.162823 -0.0643249 0)
(-0.157195 -0.0750086 0)
(-0.1506 -0.0848756 0)
(-0.143082 -0.0937696 0)
(-0.1347 -0.101533 0)
(-0.125525 -0.108007 0)
(-0.11565 -0.113038 0)
(-0.105185 -0.116477 0)
(-0.0942599 -0.11819 0)
(-0.0830267 -0.118054 0)
(-0.0716582 -0.115969 0)
(-0.0603477 -0.111863 0)
(-0.0493076 -0.105691 0)
(-0.0387672 -0.0974474 0)
(-0.0289696 -0.0871669 0)
(-0.0201687 -0.0749278 0)
(-0.0126172 -0.0608553 0)
(-0.00655521 -0.0451211 0)
(-0.00230325 -0.027942 0)
(-0.000340372 -0.00959178 0)
(-0.182501 -0.00379538 0)
(-0.182058 -0.0174063 0)
(-0.18057 -0.0309207 0)
(-0.178033 -0.0442006 0)
(-0.174446 -0.0571016 0)
(-0.169815 -0.069473 0)
(-0.164154 -0.0811572 0)
(-0.15749 -0.0919901 0)
(-0.149858 -0.101802 0)
(-0.141311 -0.11042 0)
(-0.131915 -0.117669 0)
(-0.121758 -0.123375 0)
(-0.110948 -0.12737 0)
(-0.0996158 -0.129496 0)
(-0.0879149 -0.129608 0)
(-0.0760249 -0.127584 0)
(-0.0641487 -0.12333 0)
(-0.0525125 -0.116781 0)
(-0.0413628 -0.107916 0)
(-0.030964 -0.0967554 0)
(-0.0215937 -0.0833689 0)
(-0.0135304 -0.0678789 0)
(-0.00704071 -0.0504593 0)
(-0.0024782 -0.0313357 0)
(-0.000367378 -0.0107969 0)
(-0.188805 -0.00368255 0)
(-0.188444 -0.0183355 0)
(-0.187035 -0.0329015 0)
(-0.184571 -0.0472382 0)
(-0.181044 -0.0611958 0)
(-0.176455 -0.0746162 0)
(-0.170811 -0.0873332 0)
(-0.16413 -0.0991716 0)
(-0.15644 -0.109949 0)
(-0.147784 -0.119476 0)
(-0.138223 -0.127559 0)
(-0.127837 -0.134004 0)
(-0.116729 -0.13862 0)
(-0.10503 -0.141224 0)
(-0.0928931 -0.141645 0)
(-0.0805037 -0.139736 0)
(-0.0680739 -0.135376 0)
(-0.0558435 -0.128477 0)
(-0.0440771 -0.118997 0)
(-0.0330613 -0.106939 0)
(-0.0231002 -0.092362 0)
(-0.0145008 -0.075383 0)
(-0.00755907 -0.0561775 0)
(-0.00266603 -0.0349794 0)
(-0.00039665 -0.0120939 0)
(-0.194481 -0.0034841 0)
(-0.194213 -0.0191759 0)
(-0.192905 -0.0347938 0)
(-0.190544 -0.0501923 0)
(-0.187118 -0.0652174 0)
(-0.182621 -0.0797053 0)
(-0.177051 -0.0934816 0)
(-0.170415 -0.106361 0)
(-0.162732 -0.118148 0)
(-0.154036 -0.128637 0)
(-0.144377 -0.137616 0)
(-0.133826 -0.144869 0)
(-0.122482 -0.150178 0)
(-0.110467 -0.153332 0)
(-0.0979376 -0.154134 0)
(-0.085081 -0.152404 0)
(-0.0721178 -0.147991 0)
(-0.059301 -0.140779 0)
(-0.0469142 -0.130699 0)
(-0.0352679 -0.117735 0)
(-0.0246948 -0.10193 0)
(-0.0155336 -0.0833928 0)
(-0.00811373 -0.0622988 0)
(-0.00286819 -0.0388901 0)
(-0.000428473 -0.0134897 0)
(-0.199368 -0.00319424 0)
(-0.199204 -0.0199109 0)
(-0.19802 -0.03657 0)
(-0.195797 -0.0530248 0)
(-0.192518 -0.0691188 0)
(-0.188167 -0.0846838 0)
(-0.182735 -0.099539 0)
(-0.176217 -0.11349 0)
(-0.168619 -0.126328 0)
(-0.159964 -0.137831 0)
(-0.150288 -0.147769 0)
(-0.139652 -0.155899 0)
(-0.128144 -0.16198 0)
(-0.115882 -0.165768 0)
(-0.103016 -0.167032 0)
(-0.0897361 -0.165557 0)
(-0.0762696 -0.161156 0)
(-0.0628822 -0.153681 0)
(-0.0498768 -0.143031 0)
(-0.0375894 -0.129161 0)
(-0.0263838 -0.112097 0)
(-0.0166345 -0.0919349 0)
(-0.00870838 -0.0688482 0)
(-0.0030863 -0.0430867 0)
(-0.000463164 -0.0149923 0)
(-0.203282 -0.00280911 0)
(-0.203232 -0.0205237 0)
(-0.202195 -0.0382007 0)
(-0.200147 -0.055694 0)
(-0.197064 -0.0728467 0)
(-0.192923 -0.089488 0)
(-0.187701 -0.105432 0)
(-0.181383 -0.120477 0)
(-0.173961 -0.134401 0)
(-0.165441 -0.146969 0)
(-0.155845 -0.157928 0)
(-0.145221 -0.167012 0)
(-0.133641 -0.173948 0)
(-0.121214 -0.178461 0)
(-0.108085 -0.18028 0)
(-0.0944402 -0.179151 0)
(-0.080513 -0.174845 0)
(-0.0665809 -0.167172 0)
(-0.0529657 -0.155993 0)
(-0.0400307 -0.141232 0)
(-0.0281739 -0.122886 0)
(-0.0178094 -0.101037 0)
(-0.00934714 -0.0758529 0)
(-0.0033222 -0.04759 0)
(-0.000501092 -0.0166101 0)
(-0.206015 -0.00232726 0)
(-0.206086 -0.0209985 0)
(-0.205218 -0.0396553 0)
(-0.203384 -0.0581551 0)
(-0.200552 -0.0763424 0)
(-0.196689 -0.0940464 0)
(-0.19176 -0.111078 0)
(-0.185736 -0.12723 0)
(-0.178592 -0.14227 0)
(-0.170318 -0.155947 0)
(-0.160917 -0.167989 0)
(-0.150418 -0.178103 0)
(-0.138878 -0.185987 0)
(-0.126389 -0.191325 0)
(-0.113087 -0.193806 0)
(-0.0991546 -0.193129 0)
(-0.084825 -0.189017 0)
(-0.0703863 -0.18123 0)
(-0.0561795 -0.169582 0)
(-0.0425962 -0.153957 0)
(-0.030072 -0.13432 0)
(-0.0190652 -0.110728 0)
(-0.0100347 -0.0833421 0)
(-0.003578 -0.0524228 0)
(-0.000542695 -0.0183531 0)
(-0.207328 -0.00175027 0)
(-0.207526 -0.0213202 0)
(-0.206851 -0.0409025 0)
(-0.205271 -0.06036 0)
(-0.202747 -0.079542 0)
(-0.199236 -0.09828 0)
(-0.194691 -0.116385 0)
(-0.189065 -0.133644 0)
(-0.182318 -0.149819 0)
(-0.174416 -0.164644 0)
(-0.165343 -0.177827 0)
(-0.155105 -0.189051 0)
(-0.143737 -0.197977 0)
(-0.131313 -0.204252 0)
(-0.117953 -0.207515 0)
(-0.103829 -0.207414 0)
(-0.0891743 -0.203615 0)
(-0.074283 -0.195819 0)
(-0.0595146 -0.183785 0)
(-0.04529 -0.167344 0)
(-0.0320855 -0.146419 0)
(-0.0204094 -0.121038 0)
(-0.0107767 -0.0913476 0)
(-0.00385628 -0.0576105 0)
(-0.000588504 -0.0202322 0)
(-0.206956 -0.00108333 0)
(-0.207282 -0.0214759 0)
(-0.206821 -0.0419104 0)
(-0.205537 -0.0622585 0)
(-0.203383 -0.0823768 0)
(-0.200304 -0.102102 0)
(-0.196242 -0.121249 0)
(-0.191131 -0.139602 0)
(-0.184911 -0.156919 0)
(-0.177526 -0.172921 0)
(-0.168935 -0.187299 0)
(-0.159116 -0.199709 0)
(-0.148078 -0.209778 0)
(-0.135871 -0.217109 0)
(-0.122593 -0.22129 0)
(-0.108401 -0.221909 0)
(-0.0935201 -0.218564 0)
(-0.0782495 -0.210891 0)
(-0.0629642 -0.198577 0)
(-0.0481153 -0.181391 0)
(-0.0342229 -0.159202 0)
(-0.0218512 -0.131998 0)
(-0.0115798 -0.0999038 0)
(-0.00416016 -0.0631815 0)
(-0.000639177 -0.0222596 0)
(-0.204605 -0.000335791 0)
(-0.205058 -0.0214548 0)
(-0.204831 -0.042648 0)
(-0.203883 -0.0637987 0)
(-0.202161 -0.0847742 0)
(-0.199601 -0.105421 0)
(-0.196127 -0.125558 0)
(-0.191658 -0.144974 0)
(-0.186112 -0.163423 0)
(-0.179405 -0.18062 0)
(-0.171469 -0.196238 0)
(-0.162252 -0.209907 0)
(-0.15173 -0.221221 0)
(-0.139922 -0.229737 0)
(-0.126896 -0.234986 0)
(-0.112788 -0.236488 0)
(-0.0978089 -0.233767 0)
(-0.0822564 -0.226376 0)
(-0.0665182 -0.213921 0)
(-0.0510748 -0.196091 0)
(-0.0364937 -0.172685 0)
(-0.0234015 -0.14364 0)
(-0.0124522 -0.109049 0)
(-0.00449355 -0.0691678 0)
(-0.000695549 -0.0244498 0)
(-0.19995 0.000478362 0)
(-0.200525 -0.0212495 0)
(-0.200549 -0.0430855 0)
(-0.199977 -0.0649281 0)
(-0.198752 -0.0866588 0)
(-0.196797 -0.108136 0)
(-0.194024 -0.129191 0)
(-0.190334 -0.149617 0)
(-0.185619 -0.169171 0)
(-0.17977 -0.187563 0)
(-0.172686 -0.204452 0)
(-0.164279 -0.219448 0)
(-0.154488 -0.232108 0)
(-0.143292 -0.241943 0)
(-0.130724 -0.248424 0)
(-0.116888 -0.250996 0)
(-0.101972 -0.249096 0)
(-0.0862647 -0.242183 0)
(-0.0701613 -0.229761 0)
(-0.0541703 -0.211422 0)
(-0.0389089 -0.186878 0)
(-0.0250737 -0.155995 0)
(-0.0134043 -0.118823 0)
(-0.00486142 -0.0756057 0)
(-0.000758692 -0.0268192 0)
(-0.192639 0.00134016 0)
(-0.193326 -0.0208562 0)
(-0.193613 -0.0431958 0)
(-0.193456 -0.0655954 0)
(-0.192789 -0.0879541 0)
(-0.19153 -0.110147 0)
(-0.189574 -0.13202 0)
(-0.186805 -0.153379 0)
(-0.183091 -0.173986 0)
(-0.178296 -0.193551 0)
(-0.172281 -0.211727 0)
(-0.164919 -0.228104 0)
(-0.156106 -0.242207 0)
(-0.145774 -0.2535 0)
(-0.133908 -0.26139 0)
(-0.120572 -0.26524 0)
(-0.105921 -0.264391 0)
(-0.090222 -0.258188 0)
(-0.0738717 -0.246018 0)
(-0.0574021 -0.22735 0)
(-0.0414816 -0.201785 0)
(-0.0268842 -0.169097 0)
(-0.0144492 -0.129274 0)
(-0.00527019 -0.0825374 0)
(-0.000830007 -0.0293874 0)
(-0.182293 0.00222554 0)
(-0.183076 -0.0202759 0)
(-0.183635 -0.0429556 0)
(-0.183925 -0.0657516 0)
(-0.183878 -0.0885847 0)
(-0.1834 -0.111351 0)
(-0.182379 -0.133915 0)
(-0.180678 -0.156099 0)
(-0.178144 -0.177679 0)
(-0.17461 -0.198372 0)
(-0.169901 -0.217827 0)
(-0.163846 -0.235621 0)
(-0.15629 -0.251253 0)
(-0.14711 -0.26414 0)
(-0.136238 -0.273625 0)
(-0.123678 -0.278983 0)
(-0.10954 -0.279447 0)
(-0.0940585 -0.274233 0)
(-0.077618 -0.262583 0)
(-0.0607677 -0.24382 0)
(-0.0442267 -0.2174 0)
(-0.028854 -0.182977 0)
(-0.015604 -0.140453 0)
(-0.00572829 -0.0900123 0)
(-0.000911359 -0.0321777 0)
(-0.168506 0.00310553 0)
(-0.169364 -0.0195143 0)
(-0.170199 -0.0423463 0)
(-0.170964 -0.0653525 0)
(-0.171589 -0.0884786 0)
(-0.171977 -0.111645 0)
(-0.172003 -0.134741 0)
(-0.171518 -0.157613 0)
(-0.170345 -0.180053 0)
(-0.168289 -0.201793 0)
(-0.165138 -0.22249 0)
(-0.160675 -0.241713 0)
(-0.154688 -0.258941 0)
(-0.146992 -0.273551 0)
(-0.13745 -0.284821 0)
(-0.125997 -0.291937 0)
(-0.112679 -0.294011 0)
(-0.0976797 -0.290111 0)
(-0.0813551 -0.279311 0)
(-0.0642603 -0.26075 0)
(-0.0471615 -0.233703 0)
(-0.031009 -0.197665 0)
(-0.0168906 -0.152419 0)
(-0.0062469 -0.098089 0)
(-0.00100527 -0.0352187 0)
(-0.150849 0.00394683 0)
(-0.151759 -0.0185829 0)
(-0.152865 -0.0413558 0)
(-0.154125 -0.0643608 0)
(-0.155469 -0.0875708 0)
(-0.156796 -0.110936 0)
(-0.157976 -0.134372 0)
(-0.158846 -0.157756 0)
(-0.159214 -0.180906 0)
(-0.158857 -0.203577 0)
(-0.157526 -0.225439 0)
(-0.154958 -0.246069 0)
(-0.150882 -0.264932 0)
(-0.145042 -0.281375 0)
(-0.13722 -0.294617 0)
(-0.127266 -0.303752 0)
(-0.115142 -0.307764 0)
(-0.100957 -0.305558 0)
(-0.0850168 -0.296006 0)
(-0.0678648 -0.278023 0)
(-0.0503045 -0.250657 0)
(-0.033382 -0.213189 0)
(-0.0183381 -0.165238 0)
(-0.0068411 -0.106839 0)
(-0.00111522 -0.0385455 0)
(-0.128879 0.00471288 0)
(-0.129811 -0.0174982 0)
(-0.131179 -0.0399797 0)
(-0.132945 -0.0627484 0)
(-0.13504 -0.0858071 0)
(-0.137366 -0.109137 0)
(-0.139791 -0.132689 0)
(-0.142145 -0.156372 0)
(-0.144222 -0.180041 0)
(-0.145778 -0.203479 0)
(-0.146531 -0.226386 0)
(-0.146173 -0.248354 0)
(-0.144373 -0.268853 0)
(-0.140799 -0.287209 0)
(-0.13514 -0.302593 0)
(-0.127146 -0.314012 0)
(-0.116666 -0.320319 0)
(-0.103711 -0.320236 0)
(-0.0885057 -0.312406 0)
(-0.0715519 -0.295473 0)
(-0.0536744 -0.268193 0)
(-0.0360138 -0.229569 0)
(-0.0199848 -0.178988 0)
(-0.00753154 -0.116348 0)
(-0.00124609 -0.042203 0)
(-0.102141 0.00536549 0)
(-0.103064 -0.0162824 0)
(-0.104677 -0.0382223 0)
(-0.106946 -0.0604996 0)
(-0.10981 -0.0831482 0)
(-0.113177 -0.106183 0)
(-0.116917 -0.129592 0)
(-0.120859 -0.153323 0)
(-0.124792 -0.177271 0)
(-0.128458 -0.201265 0)
(-0.131549 -0.22504 0)
(-0.133717 -0.248223 0)
(-0.134572 -0.270302 0)
(-0.133704 -0.290604 0)
(-0.130703 -0.308266 0)
(-0.125198 -0.322222 0)
(-0.116904 -0.331196 0)
(-0.105696 -0.333716 0)
(-0.0916762 -0.328166 0)
(-0.0752681 -0.312865 0)
(-0.057286 -0.286203 0)
(-0.0389546 -0.246811 0)
(-0.0218818 -0.193756 0)
(-0.00834687 -0.126727 0)
(-0.0014049 -0.0462487 0)
(-0.0701773 0.00586708 0)
(-0.0710598 -0.014962 0)
(-0.0728919 -0.0360978 0)
(-0.0756501 -0.0576138 0)
(-0.0792826 -0.0795745 0)
(-0.0837059 -0.10203 0)
(-0.0887999 -0.125006 0)
(-0.094403 -0.148494 0)
(-0.100306 -0.172439 0)
(-0.106245 -0.196719 0)
(-0.1119 -0.221123 0)
(-0.116891 -0.245327 0)
(-0.120779 -0.26886 0)
(-0.123077 -0.291072 0)
(-0.123271 -0.311092 0)
(-0.120856 -0.327804 0)
(-0.115387 -0.339815 0)
(-0.106561 -0.345459 0)
(-0.0943088 -0.342833 0)
(-0.0789176 -0.329874 0)
(-0.0611421 -0.304515 0)
(-0.0422643 -0.264899 0)
(-0.0240972 -0.209641 0)
(-0.00932768 -0.138111 0)
(-0.00160208 -0.0507586 0)
(-0.03254 0.00618357 0)
(-0.0333506 -0.013567 0)
(-0.0353717 -0.0336312 0)
(-0.0385894 -0.0541079 0)
(-0.0429648 -0.0750912 0)
(-0.0484294 -0.0966643 0)
(-0.0548797 -0.118893 0)
(-0.0621704 -0.141815 0)
(-0.0701062 -0.165426 0)
(-0.0784336 -0.189666 0)
(-0.0868314 -0.214389 0)
(-0.0949037 -0.239338 0)
(-0.102176 -0.264109 0)
(-0.108096 -0.288103 0)
(-0.112049 -0.310477 0)
(-0.113387 -0.330096 0)
(-0.111482 -0.345481 0)
(-0.105811 -0.354787 0)
(-0.0960698 -0.355806 0)
(-0.0823329 -0.346042 0)
(-0.0652184 -0.322865 0)
(-0.0460101 -0.283775 0)
(-0.0267224 -0.226752 0)
(-0.0105325 -0.150676 0)
(-0.00185355 -0.0558352 0)
(0.0111976 0.00628772 0)
(0.0104858 -0.0121293 0)
(0.00831275 -0.0308581 0)
(0.00468109 -0.0500195 0)
(-0.000385814 -0.069733 0)
(-0.00683938 -0.0901131 0)
(-0.0145997 -0.111263 0)
(-0.0235475 -0.133265 0)
(-0.0335145 -0.156173 0)
(-0.0442717 -0.179989 0)
(-0.0555163 -0.204647 0)
(-0.0668583 -0.229975 0)
(-0.0778083 -0.255659 0)
(-0.0877703 -0.281188 0)
(-0.0960432 -0.305789 0)
(-0.10184 -0.328357 0)
(-0.104334 -0.347377 0)
(-0.10274 -0.360858 0)
(-0.0964502 -0.366301 0)
(-0.0852255 -0.360732 0)
(-0.069433 -0.340845 0)
(-0.0502587 -0.303304 0)
(-0.0298785 -0.245196 0)
(-0.0120478 -0.164647 0)
(-0.00218459 -0.0616203 0)
(0.0614255 0.00616288 0)
(0.0608322 -0.0106808 0)
(0.0585486 -0.0278252 0)
(0.0545653 -0.045408 0)
(0.0488877 -0.0635691 0)
(0.0415402 -0.0824486 0)
(0.0325728 -0.102182 0)
(0.0220688 -0.122897 0)
(0.0101567 -0.144699 0)
(-0.00297655 -0.167659 0)
(-0.0170683 -0.191796 0)
(-0.0317612 -0.217038 0)
(-0.0465821 -0.243187 0)
(-0.0609227 -0.269855 0)
(-0.0740262 -0.296391 0)
(-0.0849882 -0.321787 0)
(-0.0927841 -0.34456 0)
(-0.0963403 -0.362648 0)
(-0.094671 -0.373301 0)
(-0.0871025 -0.373058 0)
(-0.0735902 -0.357833 0)
(-0.0550538 -0.323222 0)
(-0.0337234 -0.265065 0)
(-0.0140032 -0.180316 0)
(-0.00263697 -0.0683164 0)
(0.118479 0.00580676 0)
(0.118014 -0.00925102 0)
(0.115664 -0.0245897 0)
(0.111408 -0.0403571 0)
(0.105232 -0.0567065 0)
(0.097133 -0.0737964 0)
(0.0871253 -0.091789 0)
(0.0752486 -0.110846 0)
(0.0615789 -0.131124 0)
(0.0462439 -0.15276 0)
(0.029442 -0.175856 0)
(0.0114674 -0.200453 0)
(-0.00726197 -0.226486 0)
(-0.0261711 -0.253728 0)
(-0.0444967 -0.281703 0)
(-0.0612627 -0.309574 0)
(-0.0752781 -0.335994 0)
(-0.0851784 -0.358937 0)
(-0.0895427 -0.375506 0)
(-0.0871315 -0.381798 0)
(-0.0772756 -0.372882 0)
(-0.0603634 -0.343036 0)
(-0.0384511 -0.28638 0)
(-0.0165971 -0.198056 0)
(-0.0032823 -0.0762216 0)
(0.182618 0.00523469 0)
(0.18228 -0.0078651 0)
(0.17991 -0.0212181 0)
(0.175477 -0.0349744 0)
(0.168946 -0.0492925 0)
(0.160287 -0.0643404 0)
(0.149476 -0.0802964 0)
(0.136502 -0.0973484 0)
(0.121379 -0.115691 0)
(0.10416 -0.135518 0)
(0.0849564 -0.157014 0)
(0.0639671 -0.180326 0)
(0.0415107 -0.205536 0)
(0.0180711 -0.232603 0)
(-0.00565106 -0.261276 0)
(-0.0286856 -0.290974 0)
(-0.0497479 -0.320604 0)
(-0.067229 -0.348332 0)
(-0.0792596 -0.371293 0)
(-0.0839193 -0.385287 0)
(-0.079663 -0.384562 0)
(-0.0659611 -0.361862 0)
(-0.0442686 -0.308998 0)
(-0.0201328 -0.218329 0)
(-0.00424683 -0.0857912 0)
(0.254007 0.00448181 0)
(0.253781 -0.00654215 0)
(0.251438 -0.0177852 0)
(0.246937 -0.0293916 0)
(0.240228 -0.0415159 0)
(0.231251 -0.0543253 0)
(0.219944 -0.0680026 0)
(0.206245 -0.082748 0)
(0.1901 -0.0987802 0)
(0.171478 -0.116335 0)
(0.150384 -0.135659 0)
(0.126893 -0.157 0)
(0.101179 -0.180579 0)
(0.0735713 -0.206549 0)
(0.044621 -0.23492 0)
(0.0151821 -0.265439 0)
(-0.0134934 -0.297398 0)
(-0.0396726 -0.329353 0)
(-0.0611108 -0.358729 0)
(-0.0751639 -0.381317 0)
(-0.0791685 -0.390748 0)
(-0.0711706 -0.378152 0)
(-0.0513011 -0.332397 0)
(-0.0250623 -0.241658 0)
(-0.00575559 -0.0977436 0)
(0.332695 0.0036035 0)
(0.332553 -0.00529452 0)
(0.330283 -0.0143731 0)
(0.325839 -0.023763 0)
(0.319155 -0.0336055 0)
(0.31015 -0.0440565 0)
(0.298725 -0.0552904 0)
(0.28477 -0.0675046 0)
(0.268166 -0.0809233 0)
(0.248793 -0.0958015 0)
(0.226544 -0.112426 0)
(0.201348 -0.131116 0)
(0.1732 -0.152206 0)
(0.142214 -0.17603 0)
(0.108697 -0.202861 0)
(0.0732523 -0.232817 0)
(0.0369162 -0.265684 0)
(0.00132903 -0.300618 0)
(-0.031101 -0.335671 0)
(-0.0571255 -0.367085 0)
(-0.0728435 -0.388364 0)
(-0.0743307 -0.38927 0)
(-0.0593113 -0.355258 0)
(-0.0320014 -0.268485 0)
(-0.00820064 -0.113229 0)
(0.418589 0.00267307 0)
(0.418492 -0.00412892 0)
(0.416344 -0.0110712 0)
(0.412094 -0.0182638 0)
(0.405667 -0.0258273 0)
(0.396965 -0.0338963 0)
(0.385863 -0.0426247 0)
(0.37221 -0.052191 0)
(0.355832 -0.0628051 0)
(0.33653 -0.0747153 0)
(0.314089 -0.0882164 0)
(0.288292 -0.103657 0)
(0.258937 -0.121444 0)
(0.225884 -0.142039 0)
(0.189113 -0.16594 0)
(0.148839 -0.193621 0)
(0.105664 -0.225408 0)
(0.0608231 -0.261222 0)
(0.0164911 -0.300099 0)
(-0.0238788 -0.33935 0)
(-0.0553567 -0.373207 0)
(-0.071716 -0.390927 0)
(-0.0669359 -0.374695 0)
(-0.0415446 -0.298722 0)
(-0.0121948 -0.134037 0)
(0.511437 0.00177604 0)
(0.511345 -0.00304968 0)
(0.509371 -0.00797613 0)
(0.505465 -0.0130883 0)
(0.499548 -0.0184797 0)
(0.491514 -0.0242565 0)
(0.481225 -0.0305418 0)
(0.468506 -0.0374819 0)
(0.453144 -0.045253 0)
(0.434885 -0.0540709 0)
(0.413428 -0.0642024 0)
(0.388431 -0.0759791 0)
(0.359513 -0.0898147 0)
(0.326278 -0.106222 0)
(0.288347 -0.125826 0)
(0.245445 -0.149364 0)
(0.19754 -0.177635 0)
(0.145098 -0.211357 0)
(0.0894933 -0.250796 0)
(0.0336082 -0.294973 0)
(-0.0174162 -0.340061 0)
(-0.0554572 -0.37654 0)
(-0.0697491 -0.384915 0)
(-0.0533042 -0.330642 0)