/*--------------------------------*- C++ -*----------------------------------*\
| =========                 |                                                 |
| \\      /  F ield         | OpenFOAM: The Open Source CFD Toolbox           |
|  \\    /   O peration     | Version:  v2012                                 |
|   \\  /    A nd           | Website:  www.openfoam.com                      |
|    \\/     M anipulation  |                                                 |
\*---------------------------------------------------------------------------*/
FoamFile
{
    version     2.0;
    format      ascii;
    class       volScalarField;
    location    "0.3";
    object      p;
}
// * * * * * * * * * * * * * * * * * * * * * * * * * * * * * * * * * * * * * //

dimensions      [0 2 -2 0 0 0 0];


internalField   nonuniform List<scalar> 
1250
(
0.0372131
0.0438285
0.0503261
0.0566159
0.0626094
0.0682208
0.0733681
0.077975
0.0819722
0.0852994
0.0879067
0.0897573
0.0908288
0.0911159
0.0906331
0.0894165
0.0875282
0.0850591
0.0821341
0.0789182
0.0756223
0.0725101
0.069909
0.0682257
0.067718
0.036914
0.0428911
0.0487611
0.0544433
0.0598584
0.0649299
0.0695853
0.0737574
0.077386
0.0804191
0.0828153
0.0845447
0.0855914
0.0859551
0.0856533
0.0847235
0.0832254
0.0812438
0.078891
0.0763102
0.0736768
0.0711979
0.069113
0.0677141
0.0672106
0.0366752
0.0421763
0.0475793
0.0528104
0.0577973
0.0624702
0.0667634
0.0706163
0.0739748
0.0767929
0.0790341
0.0806732
0.0816977
0.0821092
0.0819259
0.0811833
0.0799367
0.0782622
0.0762583
0.0740469
0.0717726
0.0696012
0.067717
0.0663122
0.0655309
0.0364713
0.0416122
0.0466629
0.0515547
0.0562206
0.0605958
0.0646194
0.0682353
0.0713937
0.0740522
0.0761775
0.0777466
0.0787482
0.0791841
0.0790708
0.07844
0.0773408
0.0758394
0.0740203
0.0719855
0.069853
0.0677583
0.0658464
0.0642115
0.0629152
0.0362722
0.0411154
0.0458757
0.0504889
0.0548919
0.0590242
0.0628285
0.0662522
0.0692484
0.0717773
0.0738073
0.0753165
0.0762936
0.0767391
0.0766665
0.0761032
0.0750906
0.073685
0.0719571
0.0699899
0.067878
0.0657317
0.0636643
0.0616726
0.0597297
0.0360696
0.040676
0.0452062
0.0495995
0.0537962
0.0577387
0.0613726
0.0646476
0.0675187
0.0699474
0.071903
0.0733633
0.0743159
0.0747594
0.0747034
0.0741699
0.073193
0.0718189
0.0701052
0.0681186
0.0659329
0.0636389
0.0613252
0.0588979
0.0562508
0.0358545
0.0402845
0.0446446
0.0488766
0.0529234
0.0567293
0.0602417
0.0634117
0.0661953
0.0685543
0.0704576
0.071882
0.0728134
0.073247
0.0731886
0.0726542
0.0716707
0.0702749
0.0685127
0.0664365
0.0641034
0.061589
0.0589648
0.0560559
0.0526883
0.0356151
0.0399262
0.0441732
0.0482998
0.0522504
0.0559706
0.0594086
0.0625162
0.0652492
0.067569
0.0694433
0.0708472
0.0717637
0.0721848
0.0721113
0.0715538
0.070532
0.069074
0.0672159
0.0649977
0.0624631
0.0596775
0.0567002
0.053286
0.0492025
0.0353389
0.0395862
0.0437749
0.0478499
0.0517561
0.0554401
0.05885
0.0619372
0.0646568
0.066969
0.0688395
0.0702408
0.0711529
0.0715636
0.0714692
0.0708744
0.0697921
0.068243
0.0662543
0.0638562
0.0610819
0.0579898
0.0546323
0.0507015
0.045915
0.0350124
0.0392496
0.0434335
0.0475094
0.0514226
0.0551193
0.0585473
0.0616567
0.0644012
0.066739
0.0686334
0.0700536
0.070976
0.071384
0.071269
0.07063
0.0694738
0.0678142
0.065671
0.0630664
0.0600256
0.056603
0.0528475
0.0483954
0.0429194
0.0346211
0.038901
0.0431329
0.047262
0.0512333
0.054992
0.0584848
0.0616602
0.0644697
0.0668689
0.0688178
0.0702821
0.071234
0.0716522
0.0715232
0.0708403
0.0696044
0.0678233
0.0655105
0.0626818
0.0593562
0.0555869
0.0514215
0.0464453
0.04029
0.0341492
0.0385242
0.0428568
0.0470915
0.0511724
0.0550433
0.0586491
0.061936
0.064853
0.067352
0.0693897
0.0709275
0.0719329
0.0723799
0.0722494
0.0715294
0.0702152
0.068309
0.0658189
0.0627555
0.0591334
0.0550059
0.0504221
0.0449184
0.0380883
0.0335793
0.0381022
0.0425886
0.046982
0.051225
0.0552596
0.0590284
0.0624748
0.0655444
0.0681854
0.0703501
0.0719953
0.0730834
0.073583
0.0734697
0.0727258
0.0713412
0.0693127
0.0666439
0.0633411
0.0594155
0.0549219
0.0499121
0.0438758
0.0363687
0.0328929
0.037617
0.042311
0.0469173
0.0513764
0.0556282
0.0596124
0.063269
0.0665398
0.0693686
0.071703
0.0734944
0.0746998
0.0752819
0.0752104
0.074462
0.0730209
0.0708792
0.0680359
0.0644937
0.0602611
0.0553957
0.0499527
0.0433755
0.0351821
0.03207
0.0370493
0.0420061
0.0468809
0.051612
0.0561368
0.0603914
0.0643123
0.0678368
0.0709038
0.0734553
0.0754372
0.0768
0.0775004
0.0775016
0.0767744
0.0752971
0.0730568
0.0700483
0.0662708
0.0617309
0.0564892
0.0506054
0.0434755
0.0345797
0.031089
0.0363789
0.041655
0.0468556
0.051917
0.056773
0.0613565
0.0655995
0.0694343
0.0727946
0.0756162
0.0778385
0.0794053
0.0802662
0.0803777
0.0797037
0.0782167
0.0758981
0.0727386
0.068734
0.0638888
0.0582674
0.0519343
0.0442367
0.0346151
0.0299271
0.0355843
0.0412377
0.0468238
0.0522758
0.0575245
0.0624987
0.0671257
0.0713325
0.0750465
0.0781969
0.0807159
0.0825398
0.0836104
0.0838766
0.0832949
0.081831
0.0794606
0.0761694
0.0719497
0.0668039
0.0608004
0.0540084
0.0457243
0.0353473
0.0285604
0.034643
0.0407337
0.0467668
0.0526727
0.0583788
0.0638093
0.0688867
0.073532
0.0776659
0.0812103
0.0840892
0.0862306
0.0875677
0.0880407
0.0875978
0.0861971
0.0838075
0.0804094
0.0759908
0.0705518
0.0641646
0.0569035
0.048011
0.0368425
0.0269644
0.0335318
0.0401216
0.0466655
0.0530913
0.0593226
0.0652793
0.0708782
0.0760341
0.0806603
0.0846706
0.0879803
0.0905077
0.0921763
0.0929166
0.0926673
0.0913775
0.0890086
0.0855345
0.080938
0.0752163
0.0684453
0.0607044
0.0511781
0.0391757
0.0251143
0.0322275
0.0393796
0.0465005
0.0535149
0.0603428
0.0668994
0.073096
0.0788403
0.084038
0.0885938
0.092413
0.0954036
0.0974781
0.0985555
0.0985638
0.0974417
0.0951413
0.0916289
0.0868811
0.0808912
0.073738
0.0655062
0.0553181
0.0424335
0.0229859
0.030707
0.0384864
0.0462521
0.0539265
0.0614257
0.0686604
0.0755358
0.0819526
0.0878078
0.0929965
0.0974132
0.100954
0.103519
0.105014
0.105354
0.104466
0.102292
0.0987871
0.0939211
0.0876818
0.0801509
0.0714173
0.0605365
0.0467155
0.0205564
0.0289483
0.0374211
0.0459015
0.0543094
0.0625579
0.0705527
0.0781933
0.0853727
0.0919791
0.0978969
0.103009
0.107197
0.110348
0.112352
0.113111
0.112536
0.110556
0.107114
0.102171
0.0957074
0.0878064
0.0785612
0.0669545
0.0521366
0.0178059
0.026932
0.036165
0.0454309
0.054648
0.0637263
0.0725673
0.0810644
0.089103
0.0965618
0.103314
0.109228
0.114173
0.118019
0.120639
0.121916
0.121746
0.12004
0.116729
0.11176
0.105103
0.0968446
0.0870793
0.0747111
0.0588297
0.0147183
0.0246416
0.0347018
0.0448249
0.0549281
0.0649191
0.0746956
0.0841453
0.0931458
0.101566
0.109267
0.116104
0.121927
0.12659
0.129946
0.131858
0.1322
0.130865
0.127765
0.122831
0.116024
0.107425
0.0971339
0.0839668
0.0669482
0.0112834
0.022066
0.0330196
0.0440711
0.0551379
0.0661261
0.0769302
0.0874327
0.0975039
0.107003
0.115777
0.123666
0.130505
0.136123
0.140352
0.143032
0.144013
0.143162
0.140371
0.13555
0.128644
0.119732
0.108912
0.0949065
0.0766698
0.00749844
0.0192006
0.031112
0.0431621
0.0552693
0.0673396
0.0792653
0.0909245
0.102181
0.112882
0.122865
0.131951
0.139954
0.146683
0.151944
0.155547
0.157313
0.157082
0.154717
0.150104
0.143166
0.133975
0.122629
0.107744
0.0881999
0.00337036
0.0160491
0.0289799
0.0420961
0.0553189
0.0685555
0.0816975
0.0946197
0.107179
0.119216
0.130551
0.14099
0.150326
0.158341
0.164812
0.169516
0.172241
0.172791
0.170994
0.166704
0.159819
0.150398
0.138534
0.122729
0.101777
-0.00108204
0.012626
0.0266333
0.040879
0.0552891
0.0697739
0.084226
0.0985187
0.112504
0.126014
0.138856
0.150819
0.161672
0.171168
0.179053
0.185066
0.188952
0.190474
0.189416
0.185594
0.178869
0.169283
0.156919
0.140149
0.117678
-0.00582603
0.00895795
0.0240927
0.0395256
0.0551896
0.0710003
0.0868538
0.102624
0.11816
0.133286
0.147799
0.161469
0.174041
0.185239
0.194769
0.202329
0.207615
0.210337
0.210229
0.207052
0.200623
0.190958
0.178123
0.160343
0.136227
-0.0108129
0.00508585
0.0213911
0.0380609
0.0550378
0.0722458
0.089587
0.106939
0.12415
0.14104
0.157396
0.17297
0.187483
0.200627
0.212067
0.221449
0.228415
0.232611
0.233706
0.231395
0.225435
0.215805
0.202544
0.18371
0.157803
-0.0159763
0.00106615
0.0185747
0.0365209
0.05486
0.0735276
0.0924355
0.111468
0.130477
0.149281
0.167657
0.185345
0.202041
0.217403
0.23105
0.242575
0.251551
0.257549
0.260157
0.258988
0.253719
0.244275
0.230655
0.210723
0.182857
-0.0212314
-0.00302844
0.0157035
0.0349528
0.0546909
0.0748687
0.0954117
0.116215
0.137139
0.158004
0.178585
0.198608
0.217748
0.235628
0.251821
0.265856
0.277232
0.285428
0.289931
0.29025
0.285957
0.276901
0.26302
0.241947
0.211923
-0.0264747
-0.00710914
0.0128511
0.0334145
0.0545728
0.0762964
0.098529
0.121182
0.144129
0.167199
0.190168
0.212756
0.23462
0.25535
0.27447
0.291443
0.305677
0.316548
0.323419
0.325663
0.322716
0.314317
0.300317
0.278065
0.245645
-0.0315853
-0.0110725
0.0101028
0.0319729
0.0545537
0.0778397
0.101798
0.126364
0.151429
0.176838
0.202378
0.227767
0.252651
0.276593
0.299069
0.31947
0.337107
0.351231
0.361055
0.36578
0.364662
0.357286
0.343369
0.319913
0.284807
-0.0364279
-0.0148037
0.00755231
0.0306999
0.0546833
0.0795261
0.105225
0.131744
0.159003
0.186872
0.215155
0.243583
0.271798
0.299344
0.325654
0.350048
0.371731
0.38981
0.403316
0.411235
0.412583
0.40673
0.393194
0.368527
0.330379
-0.0408578
-0.0181811
0.0052971
0.0296678
0.0550078
0.0813749
0.108802
0.137289
0.166793
0.197219
0.228404
0.260101
0.291966
0.323535
0.354208
0.38324
0.409726
0.432612
0.450715
0.462747
0.467412
0.463773
0.451054
0.425212
0.383576
-0.0447274
-0.0210838
0.00343088
0.028942
0.055563
0.0833909
0.112501
0.142937
0.174705
0.207757
0.241976
0.277158
0.312988
0.349017
0.384632
0.419033
0.451211
0.47994
0.503787
0.521125
0.530251
0.529798
0.518548
0.491638
0.445955
-0.0478959
-0.0234004
0.00203488
0.0285721
0.0563649
0.0855544
0.116264
0.148592
0.1826
0.218305
0.255653
0.294504
0.3346
0.375534
0.416708
0.457297
0.496202
0.532025
0.563054
0.587258
0.602397
0.606512
0.597722
0.569994
0.519556
-0.0502402
-0.0250397
0.00116715
0.0285816
0.0573999
0.0878114
0.119993
0.154106
0.190281
0.228611
0.26913
0.311785
0.356411
0.402679
0.450052
0.497722
0.544541
0.588961
0.628975
0.662081
0.685361
0.696034
0.691233
0.663204
0.607127
-0.0516673
-0.0259432
0.000851038
0.0289563
0.0586135
0.0900622
0.123539
0.159273
0.197476
0.238336
0.281991
0.328513
0.377863
0.429847
0.484048
0.539744
0.595808
0.650598
0.70184
0.746507
0.780853
0.800988
0.802579
0.775275
0.712493
-0.0521274
-0.0260968
0.00106377
0.0296344
0.0599
0.0921522
0.126689
0.163814
0.203831
0.247034
0.293695
0.344037
0.398199
0.456182
0.517772
0.582436
0.649182
0.716389
0.781602
0.841284
0.890723
0.924586
0.936408
0.911841
0.8412
-0.0516261
-0.0255421
0.00172673
0.0304967
0.061095
0.0938639
0.129164
0.167375
0.208899
0.254152
0.303556
0.357524
0.416421
0.480518
0.549909
0.624386
0.703268
0.785155
0.867611
0.946723
1.01678
1.07066
1.09892
1.08102
1.00166
-0.050233
-0.0243832
0.00269949
0.0313631
0.0619725
0.0949164
0.130615
0.169524
0.212144
0.259021
0.310746
0.367947
0.431269
0.501333
0.578661
0.663549
0.755872
0.854771
0.958203
1.06224
1.16037
1.24355
1.29831
1.29476
1.20736
-0.0480869
-0.0227902
0.00377894
0.0319931
0.0622476
0.0949702
0.130633
0.169761
0.212951
0.260876
0.314302
0.374095
0.441218
0.516718
0.601672
0.697093
0.803726
0.921722
1.05005
1.18553
1.32154
1.44747
1.5451
1.57103
1.48127
-0.0453933
-0.0209952
0.004704
0.032092
0.0615842
0.0936365
0.12876
0.167538
0.210647
0.258876
0.313159
0.374597
0.444492
0.524366
0.61597
0.721234
0.842152
0.980482
1.13715
1.31103
1.49708
1.68468
1.85151
1.93684
1.86472
-0.0424132
-0.0192775
0.00517474
0.0313345
0.0596245
0.0905134
0.124535
0.162308
0.204566
0.252188
0.306243
0.368042
0.439204
0.521733
0.6181
0.731322
0.864984
1.02314
1.20989
1.42826
1.67794
1.95232
2.22902
2.4309
2.43194
-0.0394471
-0.0179277
0.00490856
0.029443
0.0560902
0.0853144
0.117649
0.153724
0.194294
0.240284
0.292847
0.353439
0.423923
0.506711
0.604952
0.722774
0.865576
1.04032
1.25569
1.52173
1.84814
2.23976
2.6837
3.10337
3.31484
-0.0368141
-0.0172443
0.00362586
0.0261544
0.0507318
0.0777979
0.107862
0.141529
0.179534
0.222792
0.27246
0.330031
0.397474
0.477426
0.573486
0.690659
0.835998
1.01953
1.25553
1.5643
1.97281
2.50868
3.1901
4.01477
4.80843
-0.0347741
-0.0176944
0.000647293
0.0205665
0.0424079
0.0665599
0.093473
0.123684
0.157846
0.196776
0.241517
0.293427
0.35432
0.426677
0.513987
0.621293
0.756118
0.930002
1.16132
1.48062
1.93679
2.59636
3.5721
5.1944
7.6784
-0.0334295
-0.0195381
-0.00444732
0.0120951
0.0303636
0.0506653
0.0733542
0.098848
0.127652
0.160392
0.197857
0.24107
0.291384
0.350639
0.421421
0.507504
0.614667
0.752281
0.936875
1.20041
1.60434
2.26055
3.4718
6.358
12.4032
)
;

boundaryField
{
    movingWall
    {
        type            zeroGradient;
    }
    fixedWalls
    {
        type            zeroGradient;
    }
    frontAndBack
    {
        type            empty;
    }
    procBoundary1to0
    {
        type            processor;
        value           nonuniform List<scalar> 
50
(
0.03057
0.030911
0.0311504
0.0313092
0.0314106
0.0314481
0.0314128
0.031296
0.0310878
0.030776
0.0303472
0.0297858
0.0290746
0.0281948
0.0271254
0.025844
0.0243266
0.0225482
0.020483
0.0181051
0.0153893
0.0123123
0.00885378
0.0049981
0.00073598
-0.00393338
-0.0090001
-0.0144412
-0.0202184
-0.0262755
-0.032537
-0.0389065
-0.0452667
-0.0514799
-0.0573915
-0.0628338
-0.0676334
-0.0716203
-0.0746393
-0.0765629
-0.0773053
-0.0768354
-0.0751881
-0.0724709
-0.0688625
-0.0646059
-0.0600127
-0.055423
-0.0508914
-0.0463617
)
;
    }
}


// ************************************************************************* //
