/*--------------------------------*- C++ -*----------------------------------*\
| =========                 |                                                 |
| \\      /  F ield         | OpenFOAM: The Open Source CFD Toolbox           |
|  \\    /   O peration     | Version:  v2012                                 |
|   \\  /    A nd           | Website:  www.openfoam.com                      |
|    \\/     M anipulation  |                                                 |
\*---------------------------------------------------------------------------*/
FoamFile
{
    version     2.0;
    format      ascii;
    class       surfaceScalarField;
    location    "0.3";
    object      phi;
}
// * * * * * * * * * * * * * * * * * * * * * * * * * * * * * * * * * * * * * //

dimensions      [0 3 -1 0 0 0 0];
oriented        oriented;


internalField   nonuniform List<scalar> 
2425
(
-1.40555e-07
-5.48892e-10
-1.38777e-07
-1.77776e-09
-1.35789e-07
-2.98826e-09
-1.31626e-07
-4.16305e-09
-1.26342e-07
-5.28439e-09
-1.20007e-07
-6.33418e-09
-1.12713e-07
-7.29416e-09
-1.04567e-07
-8.14603e-09
-9.56956e-08
-8.87167e-09
-8.62422e-08
-9.4534e-09
-7.6368e-08
-9.87424e-09
-6.62498e-08
-1.01183e-08
-5.60789e-08
-1.01709e-08
-4.60596e-08
-1.00193e-08
-3.64065e-08
-9.65316e-09
-2.73418e-08
-9.06471e-09
-1.90916e-08
-8.2502e-09
-1.18805e-08
-7.2111e-09
-5.92378e-09
-5.95676e-09
-1.4142e-09
-4.50958e-09
1.5015e-09
-2.91571e-09
2.76689e-09
-1.26539e-09
2.49826e-09
2.68627e-10
1.17512e-09
1.32315e-09
1.17512e-09
-3.96489e-07
-2.08547e-09
-3.91609e-07
-6.65807e-09
-3.83439e-07
-1.11586e-08
-3.72079e-07
-1.55223e-08
-3.57681e-07
-1.9683e-08
-3.40441e-07
-2.35739e-08
-3.20608e-07
-2.71276e-08
-2.98476e-07
-3.02773e-08
-2.74391e-07
-3.29572e-08
-2.48741e-07
-3.51036e-08
-2.21959e-07
-3.66561e-08
-1.94518e-07
-3.75591e-08
-1.66926e-07
-3.77629e-08
-1.3972e-07
-3.72258e-08
-1.13457e-07
-3.59163e-08
-8.87056e-08
-3.38158e-08
-6.60327e-08
-3.09231e-08
-4.59838e-08
-2.726e-08
-2.90583e-08
-2.28823e-08
-1.56717e-08
-1.78962e-08
-6.09833e-09
-1.24891e-08
-3.81139e-10
-6.98258e-09
1.80595e-09
-1.91846e-09
1.33505e-09
1.79405e-09
2.51017e-09
-6.31944e-07
-4.50628e-09
-6.24341e-07
-1.42607e-08
-6.11643e-07
-2.38569e-08
-5.94009e-07
-3.31567e-08
-5.71672e-07
-4.20197e-08
-5.44942e-07
-5.03042e-08
-5.14201e-07
-5.7868e-08
-4.79908e-07
-6.45708e-08
-4.4259e-07
-7.02749e-08
-4.02845e-07
-7.48484e-08
-3.61334e-07
-7.81671e-08
-3.18776e-07
-8.01178e-08
-2.75937e-07
-8.06016e-08
-2.33625e-07
-7.95383e-08
-1.9267e-07
-7.68712e-08
-1.53912e-07
-7.25739e-08
-1.18175e-07
-6.66595e-08
-8.62421e-08
-5.91932e-08
-5.88123e-08
-5.03121e-08
-3.64523e-08
-4.02562e-08
-1.95239e-08
-2.94175e-08
-8.08739e-09
-1.84191e-08
-1.78088e-09
-8.22497e-09
3.30206e-10
-3.17031e-10
2.84038e-09
-8.5067e-07
-7.7132e-09
-8.40666e-07
-2.4264e-08
-8.23981e-07
-4.05419e-08
-8.00825e-07
-5.63132e-08
-7.71504e-07
-7.1341e-08
-7.36421e-07
-8.5387e-08
-6.96076e-07
-9.82129e-08
-6.51063e-07
-1.09584e-07
-6.02066e-07
-1.19272e-07
-5.49858e-07
-1.27057e-07
-4.95288e-07
-1.32737e-07
-4.39279e-07
-1.36126e-07
-3.82813e-07
-1.37068e-07
-3.26915e-07
-1.35437e-07
-2.72636e-07
-1.3115e-07
-2.21031e-07
-1.24178e-07
-1.7313e-07
-1.14561e-07
-1.299e-07
-1.02423e-07
-9.22019e-08
-8.80104e-08
-6.0733e-08
-7.17251e-08
-3.5958e-08
-5.41924e-08
-1.80245e-08
-3.63526e-08
-6.66984e-09
-1.95797e-08
-1.12814e-09
-5.85873e-09
1.71225e-09
-1.05573e-06
-1.16116e-08
-1.0436e-06
-3.63934e-08
-1.02338e-06
-6.07634e-08
-9.95319e-07
-8.43736e-08
-9.59788e-07
-1.06872e-07
-9.17269e-07
-1.27906e-07
-8.68359e-07
-1.47123e-07
-8.13767e-07
-1.64176e-07
-7.54308e-07
-1.7873e-07
-6.909e-07
-1.90466e-07
-6.24551e-07
-1.99085e-07
-5.56353e-07
-2.04324e-07
-4.87464e-07
-2.05957e-07
-4.19091e-07
-2.0381e-07
-3.52467e-07
-1.97774e-07
-2.88826e-07
-1.87819e-07
-2.29369e-07
-1.74018e-07
-1.75222e-07
-1.5657e-07
-1.27395e-07
-1.35838e-07
-8.67208e-08
-1.12399e-07
-5.38004e-08
-8.71129e-08
-2.89328e-08
-6.12202e-08
-1.20571e-08
-3.64553e-08
-2.70804e-09
-1.52078e-08
-9.95776e-10
-1.24976e-06
-1.61085e-08
-1.23574e-06
-5.04129e-08
-1.21236e-06
-8.41467e-08
-1.1799e-06
-1.16832e-07
-1.13879e-06
-1.47988e-07
-1.08956e-06
-1.77129e-07
-1.03291e-06
-2.03776e-07
-9.69632e-07
-2.27455e-07
-9.00653e-07
-2.4771e-07
-8.2701e-07
-2.64108e-07
-7.49847e-07
-2.76249e-07
-6.70396e-07
-2.83775e-07
-5.89964e-07
-2.86389e-07
-5.09913e-07
-2.83862e-07
-4.31632e-07
-2.76055e-07
-3.56511e-07
-2.6294e-07
-2.85904e-07
-2.44625e-07
-2.2109e-07
-2.21383e-07
-1.63228e-07
-1.937e-07
-1.13307e-07
-1.6232e-07
-7.20962e-08
-1.28324e-07
-4.00997e-08
-9.32166e-08
-1.75241e-08
-5.9031e-08
-4.27297e-09
-2.84589e-08
-5.26873e-09
-1.43502e-06
-2.11105e-08
-1.41932e-06
-6.61163e-08
-1.39309e-06
-1.10378e-07
-1.35665e-06
-1.53275e-07
-1.31045e-06
-1.94183e-07
-1.25511e-06
-2.32474e-07
-1.19136e-06
-2.67525e-07
-1.12008e-06
-2.98727e-07
-1.0423e-06
-3.2549e-07
-9.59155e-07
-3.47256e-07
-8.71894e-07
-3.6351e-07
-7.81873e-07
-3.73796e-07
-6.90529e-07
-3.77733e-07
-5.99357e-07
-3.75033e-07
-5.09889e-07
-3.65523e-07
-4.23659e-07
-3.4917e-07
-3.4217e-07
-3.26114e-07
-2.66853e-07
-2.96701e-07
-1.99028e-07
-2.61525e-07
-1.3986e-07
-2.21488e-07
-9.03204e-08
-1.77863e-07
-5.11549e-08
-1.32382e-07
-2.28735e-08
-8.73124e-08
-5.76919e-09
-4.55632e-08
-1.10379e-08
-1.61341e-06
-2.65219e-08
-1.5962e-06
-8.33196e-08
-1.56739e-06
-1.39189e-07
-1.52731e-06
-1.93358e-07
-1.47644e-06
-2.45046e-07
-1.41544e-06
-2.93473e-07
-1.34511e-06
-3.37863e-07
-1.26638e-06
-3.77458e-07
-1.18034e-06
-4.11523e-07
-1.08824e-06
-4.39365e-07
-9.91401e-07
-4.60345e-07
-8.913e-07
-4.73898e-07
-7.89483e-07
-4.7955e-07
-6.87572e-07
-4.76944e-07
-5.87228e-07
-4.65866e-07
-4.90127e-07
-4.46271e-07
-3.97921e-07
-4.1832e-07
-3.12203e-07
-3.82418e-07
-2.34469e-07
-3.39259e-07
-1.66081e-07
-2.89876e-07
-1.08235e-07
-2.3571e-07
-6.1943e-08
-1.78674e-07
-2.80346e-08
-1.21221e-07
-7.1843e-09
-6.64135e-08
-1.82222e-08
-1.78649e-06
-3.22426e-08
-1.76796e-06
-1.01853e-07
-1.7368e-06
-1.70347e-07
-1.69337e-06
-2.3679e-07
-1.63818e-06
-3.00239e-07
-1.5719e-06
-3.59749e-07
-1.49538e-06
-4.14385e-07
-1.40961e-06
-4.63227e-07
-1.31575e-06
-5.05387e-07
-1.21508e-06
-5.40027e-07
-1.10906e-06
-5.66371e-07
-9.99223e-07
-5.83733e-07
-8.87235e-07
-5.91538e-07
-7.74832e-07
-5.89347e-07
-6.63806e-07
-5.76892e-07
-5.55974e-07
-5.54104e-07
-4.53143e-07
-5.21151e-07
-3.57079e-07
-4.78483e-07
-2.69468e-07
-4.26869e-07
-1.91888e-07
-3.67457e-07
-1.25779e-07
-3.01818e-07
-7.24349e-08
-2.32018e-07
-3.30045e-08
-1.60651e-07
-8.52543e-09
-9.08926e-08
-2.67476e-08
-1.95558e-06
-3.81659e-08
-1.93588e-06
-1.21556e-07
-1.90259e-06
-2.0364e-07
-1.85606e-06
-2.83315e-07
-1.79683e-06
-3.59469e-07
-1.72559e-06
-4.30986e-07
-1.64322e-06
-4.96759e-07
-1.55075e-06
-5.557e-07
-1.44938e-06
-6.06758e-07
-1.34047e-06
-6.48935e-07
-1.22553e-06
-6.81309e-07
-1.1062e-06
-7.03061e-07
-9.84242e-07
-7.13499e-07
-8.615e-07
-7.12089e-07
-7.39898e-07
-6.98494e-07
-6.214e-07
-6.72602e-07
-5.07976e-07
-6.34575e-07
-4.01577e-07
-5.84882e-07
-3.04094e-07
-5.24352e-07
-2.17336e-07
-4.54215e-07
-1.43002e-07
-3.76152e-07
-8.26728e-08
-2.92347e-07
-3.78155e-08
-2.05508e-07
-9.80803e-09
-1.189e-07
-3.65556e-08
-2.12169e-06
-4.41773e-08
-2.10098e-06
-1.42267e-07
-2.06575e-06
-2.38866e-07
-2.01637e-06
-3.32699e-07
-1.95336e-06
-4.22477e-07
-1.87744e-06
-5.06906e-07
-1.7895e-06
-5.84702e-07
-1.6906e-06
-6.54598e-07
-1.58199e-06
-7.15368e-07
-1.46508e-06
-7.65846e-07
-1.34144e-06
-8.0495e-07
-1.21279e-06
-8.3171e-07
-1.08098e-06
-8.45304e-07
-9.47987e-07
-8.45085e-07
-8.15854e-07
-8.30626e-07
-6.86699e-07
-8.01757e-07
-5.62666e-07
-7.58607e-07
-4.45901e-07
-7.01647e-07
-3.38516e-07
-6.31737e-07
-2.42563e-07
-5.50168e-07
-1.60012e-07
-4.58703e-07
-9.27376e-08
-3.59622e-07
-4.2517e-08
-2.55729e-07
-1.10506e-08
-1.50366e-07
-4.76062e-08
-2.28558e-06
-5.0153e-08
-2.26402e-06
-1.63823e-07
-2.22706e-06
-2.75828e-07
-2.17504e-06
-3.84714e-07
-2.10851e-06
-4.89014e-07
-2.02816e-06
-5.87251e-07
-1.93491e-06
-6.77954e-07
-1.82984e-06
-7.5967e-07
-1.71422e-06
-8.30987e-07
-1.58951e-06
-8.90557e-07
-1.45734e-06
-9.37123e-07
-1.3195e-06
-9.69551e-07
-1.17793e-06
-9.86867e-07
-1.03473e-06
-9.88292e-07
-8.92063e-07
-9.73289e-07
-7.52218e-07
-9.41603e-07
-6.17518e-07
-8.93307e-07
-4.90317e-07
-8.28848e-07
-3.72959e-07
-7.49095e-07
-2.67756e-07
-6.55371e-07
-1.76955e-07
-5.49504e-07
-1.02729e-07
-4.33847e-07
-4.71654e-08
-3.11293e-07
-1.22723e-08
-1.85259e-07
-5.98784e-08
-2.44776e-06
-5.59592e-08
-2.42553e-06
-1.86052e-07
-2.38704e-06
-3.14319e-07
-2.33263e-06
-4.39129e-07
-2.26281e-06
-5.58832e-07
-2.1783e-06
-6.71762e-07
-2.07999e-06
-7.76257e-07
-1.969e-06
-8.70668e-07
-1.84659e-06
-9.53388e-07
-1.71428e-06
-1.02287e-06
-1.57373e-06
-1.07767e-06
-1.42681e-06
-1.11647e-06
-1.27555e-06
-1.13812e-06
-1.12215e-06
-1.14169e-06
-9.68925e-07
-1.12651e-06
-8.18326e-07
-1.0922e-06
-6.72867e-07
-1.03877e-06
-5.35122e-07
-9.66594e-07
-4.0768e-07
-8.76536e-07
-2.93123e-07
-7.69929e-07
-1.93989e-07
-6.48637e-07
-1.12755e-07
-5.15081e-07
-5.18191e-08
-3.72229e-07
-1.34917e-08
-2.23587e-07
-7.33701e-08
-2.60849e-06
-6.14512e-08
-2.58578e-06
-2.08769e-07
-2.54598e-06
-3.5412e-07
-2.48941e-06
-4.95696e-07
-2.41658e-06
-6.31662e-07
-2.32818e-06
-7.60163e-07
-2.2251e-06
-8.79337e-07
-2.10843e-06
-9.87333e-07
-1.97949e-06
-1.08233e-06
-1.83977e-06
-1.16259e-06
-1.69101e-06
-1.22644e-06
-1.53512e-06
-1.27236e-06
-1.37423e-06
-1.29901e-06
-1.21065e-06
-1.30528e-06
-1.04683e-06
-1.29032e-06
-8.85393e-07
-1.25364e-06
-7.29056e-07
-1.1951e-06
-5.80623e-07
-1.11503e-06
-4.42943e-07
-1.01422e-06
-3.18881e-07
-8.93991e-07
-2.11278e-07
-7.5624e-07
-1.22925e-07
-6.03434e-07
-5.65357e-08
-4.38618e-07
-1.47265e-08
-2.65396e-07
-8.80966e-08
-2.76778e-06
-6.64741e-08
-2.74478e-06
-2.31773e-07
-2.70391e-06
-3.9499e-07
-2.64546e-06
-5.54142e-07
-2.56991e-06
-7.0721e-07
-2.47793e-06
-8.52146e-07
-2.37038e-06
-9.86884e-07
-2.24835e-06
-1.10936e-06
-2.11314e-06
-1.21755e-06
-1.96626e-06
-1.30946e-06
-1.80948e-06
-1.38322e-06
-1.64477e-06
-1.43707e-06
-1.47433e-06
-1.46945e-06
-1.30059e-06
-1.47903e-06
-1.12614e-06
-1.46477e-06
-9.53771e-07
-1.42601e-06
-7.86418e-07
-1.36245e-06
-6.27124e-07
-1.27432e-06
-4.79013e-07
-1.16233e-06
-3.45246e-07
-1.02776e-06
-2.28984e-07
-8.72503e-07
-1.33345e-07
-6.99073e-07
-6.13704e-08
-5.10592e-07
-1.59933e-08
-3.10773e-07
-1.0409e-07
-2.92536e-06
-7.08632e-08
-2.90229e-06
-2.54846e-07
-2.86062e-06
-4.36663e-07
-2.8006e-06
-6.1416e-07
-2.72267e-06
-7.85138e-07
-2.62746e-06
-9.47353e-07
-2.51581e-06
-1.09854e-06
-2.38877e-06
-1.23641e-06
-2.24761e-06
-1.3587e-06
-2.09387e-06
-1.4632e-06
-1.92932e-06
-1.54777e-06
-1.75598e-06
-1.61041e-06
-1.57612e-06
-1.64931e-06
-1.39226e-06
-1.66288e-06
-1.20716e-06
-1.64987e-06
-1.02378e-06
-1.60939e-06
-8.45262e-07
-1.54097e-06
-6.74914e-07
-1.44467e-06
-5.16143e-07
-1.3211e-06
-3.72427e-07
-1.17147e-06
-2.47263e-07
-9.97667e-07
-1.44116e-07
-8.02219e-07
-6.63762e-08
-5.88333e-07
-1.73076e-08
-3.59842e-07
-1.21397e-07
-3.08069e-06
-7.4446e-08
-3.05778e-06
-2.77749e-07
-3.01561e-06
-4.7884e-07
-2.95437e-06
-6.754e-07
-2.87445e-06
-8.65053e-07
-2.77644e-06
-1.04537e-06
-2.66111e-06
-1.21386e-06
-2.52948e-06
-1.36804e-06
-2.3828e-06
-1.50539e-06
-2.22257e-06
-1.62343e-06
-2.05057e-06
-1.71978e-06
-1.86885e-06
-1.79213e-06
-1.67975e-06
-1.83841e-06
-1.48589e-06
-1.85675e-06
-1.29015e-06
-1.84561e-06
-1.09569e-06
-1.80385e-06
-9.05869e-07
-1.73079e-06
-7.24259e-07
-1.62628e-06
-5.54573e-07
-1.49078e-06
-4.00623e-07
-1.32542e-06
-2.66265e-07
-1.13202e-06
-1.55338e-07
-9.13146e-07
-7.16031e-08
-6.72068e-07
-1.86843e-08
-4.1276e-07
-1.40082e-07
-3.23292e-06
-7.70444e-08
-3.21044e-06
-3.00223e-07
-3.1681e-06
-5.21186e-07
-3.10603e-06
-7.37462e-07
-3.02458e-06
-9.46503e-07
-2.92426e-06
-1.14569e-06
-2.80578e-06
-1.33234e-06
-2.67009e-06
-1.50373e-06
-2.51839e-06
-1.65709e-06
-2.35214e-06
-1.78968e-06
-2.17311e-06
-1.8988e-06
-1.98337e-06
-1.98188e-06
-1.7853e-06
-2.03648e-06
-1.5816e-06
-2.06044e-06
-1.3753e-06
-2.05191e-06
-1.16973e-06
-2.00943e-06
-9.68479e-07
-1.93204e-06
-7.75398e-07
-1.81936e-06
-5.94521e-07
-1.67166e-06
-4.30018e-07
-1.48993e-06
-2.86132e-07
-1.27591e-06
-1.67104e-07
-1.03217e-06
-7.70995e-08
-7.62072e-07
-2.01374e-08
-4.69722e-07
-1.60219e-07
-3.38089e-06
-7.84781e-08
-3.35913e-06
-3.21989e-07
-3.31698e-06
-5.63331e-07
-3.25455e-06
-7.99889e-07
-3.1721e-06
-1.02896e-06
-3.07004e-06
-1.24775e-06
-2.94903e-06
-1.45336e-06
-2.80991e-06
-1.64284e-06
-2.65382e-06
-1.81318e-06
-2.48216e-06
-1.96134e-06
-2.29665e-06
-2.08431e-06
-2.09936e-06
-2.17917e-06
-1.89269e-06
-2.24315e-06
-1.67942e-06
-2.27371e-06
-1.46271e-06
-2.26862e-06
-1.24606e-06
-2.22608e-06
-1.03329e-06
-2.14481e-06
-8.28539e-07
-2.02411e-06
-6.36187e-07
-1.86401e-06
-4.60787e-07
-1.66533e-06
-3.06998e-07
-1.4297e-06
-1.79502e-07
-1.15967e-06
-8.29117e-08
-8.58662e-07
-2.16807e-08
-5.30953e-07
-1.819e-07
-3.52311e-06
-7.85696e-08
-3.50235e-06
-3.42749e-07
-3.46082e-06
-6.04858e-07
-3.39855e-06
-8.62161e-07
-3.3157e-06
-1.11181e-06
-3.2126e-06
-1.35084e-06
-3.08979e-06
-1.57617e-06
-2.94801e-06
-1.78462e-06
-2.7883e-06
-1.97289e-06
-2.61198e-06
-2.13767e-06
-2.42068e-06
-2.2756e-06
-2.21645e-06
-2.3834e-06
-2.0017e-06
-2.4579e-06
-1.77926e-06
-2.49615e-06
-1.55239e-06
-2.49549e-06
-1.32476e-06
-2.45372e-06
-1.10044e-06
-2.36913e-06
-8.83856e-07
-2.24069e-06
-6.7975e-07
-2.06812e-06
-4.9309e-07
-1.85199e-06
-3.28992e-07
-1.5938e-06
-1.92621e-07
-1.29604e-06
-8.90855e-08
-9.62198e-07
-2.33276e-08
-5.96711e-07
-2.05227e-07
-3.65769e-06
-7.71496e-08
-3.63825e-06
-3.62188e-07
-3.59779e-06
-6.45315e-07
-3.53626e-06
-9.23694e-07
-3.45372e-06
-1.19435e-06
-3.35038e-06
-1.45418e-06
-3.22664e-06
-1.69991e-06
-3.08314e-06
-1.92812e-06
-2.92075e-06
-2.13528e-06
-2.74068e-06
-2.31774e-06
-2.54448e-06
-2.4718e-06
-2.33411e-06
-2.59377e-06
-2.11196e-06
-2.68005e-06
-1.88089e-06
-2.72722e-06
-1.64424e-06
-2.73214e-06
-1.40585e-06
-2.69211e-06
-1.17002e-06
-2.60496e-06
-9.41485e-07
-2.46922e-06
-7.25366e-07
-2.28424e-06
-5.27078e-07
-2.05027e-06
-3.52238e-07
-1.76864e-06
-2.06547e-07
-1.44173e-06
-9.56668e-08
-1.07308e-06
-2.50919e-08
-6.67286e-07
-2.30319e-07
-3.78236e-06
-7.40644e-08
-3.76457e-06
-3.79977e-07
-3.72569e-06
-6.84203e-07
-3.66555e-06
-9.8383e-07
-3.58411e-06
-1.27579e-06
-3.48146e-06
-1.55684e-06
-3.35783e-06
-1.82354e-06
-3.21368e-06
-2.07227e-06
-3.04975e-06
-2.29921e-06
-2.86706e-06
-2.50042e-06
-2.66705e-06
-2.67182e-06
-2.45154e-06
-2.80928e-06
-2.22288e-06
-2.90871e-06
-1.98391e-06
-2.96618e-06
-1.73805e-06
-2.97801e-06
-1.48925e-06
-2.9409e-06
-1.24206e-06
-2.85215e-06
-1.00152e-06
-2.70976e-06
-7.73167e-07
-2.51259e-06
-5.6289e-07
-2.26055e-06
-3.76856e-07
-1.95467e-06
-2.21365e-07
-1.59722e-06
-1.02703e-07
-1.19174e-06
-2.69881e-08
-7.43e-07
-2.57307e-07
-3.89443e-06
-6.91839e-08
-3.87862e-06
-3.95784e-07
-3.84184e-06
-7.20988e-07
-3.78382e-06
-1.04184e-06
-3.7044e-06
-1.35521e-06
-3.60349e-06
-1.65775e-06
-3.48116e-06
-1.94587e-06
-3.33766e-06
-2.21576e-06
-3.17353e-06
-2.46335e-06
-2.98959e-06
-2.68436e-06
-2.78709e-06
-2.87432e-06
-2.56771e-06
-3.02866e-06
-2.33367e-06
-3.14276e-06
-2.08777e-06
-3.21209e-06
-1.83344e-06
-3.23234e-06
-1.57477e-06
-3.19957e-06
-1.31651e-06
-3.11042e-06
-1.06402e-06
-2.96224e-06
-8.23265e-07
-2.75335e-06
-6.00656e-07
-2.48316e-06
-4.02967e-07
-2.15236e-06
-2.37166e-07
-1.76302e-06
-1.10243e-07
-1.31866e-06
-2.90315e-08
-8.24211e-07
-2.86339e-07
-3.99072e-06
-6.24111e-08
-3.97723e-06
-4.09272e-07
-3.94312e-06
-7.55099e-07
-3.88803e-06
-1.09693e-06
-3.81163e-06
-1.43161e-06
-3.71367e-06
-1.75571e-06
-3.594e-06
-2.06554e-06
-3.45266e-06
-2.3571e-06
-3.28992e-06
-2.62609e-06
-3.10636e-06
-2.86791e-06
-2.90299e-06
-3.07769e-06
-2.68128e-06
-3.25037e-06
-2.44327e-06
-3.38076e-06
-2.19168e-06
-3.46368e-06
-1.9299e-06
-3.49411e-06
-1.66211e-06
-3.46737e-06
-1.39324e-06
-3.37929e-06
-1.12899e-06
-3.22649e-06
-8.75746e-07
-3.00659e-06
-6.40501e-07
-2.71841e-06
-4.30693e-07
-2.36217e-06
-2.54042e-07
-1.93968e-06
-1.1834e-07
-1.45437e-06
-3.1239e-08
-9.11313e-07
-3.17578e-07
-4.06757e-06
-5.3693e-08
-4.05673e-06
-4.20115e-07
-4.02589e-06
-7.85935e-07
-3.97459e-06
-1.14823e-06
-3.90234e-06
-1.50386e-06
-3.80869e-06
-1.84936e-06
-3.69325e-06
-2.18098e-06
-3.55578e-06
-2.49456e-06
-3.39628e-06
-2.78559e-06
-3.21503e-06
-3.04916e-06
-3.01272e-06
-3.28e-06
-2.79056e-06
-3.47253e-06
-2.55035e-06
-3.62097e-06
-2.29463e-06
-3.71941e-06
-2.02671e-06
-3.76202e-06
-1.75082e-06
-3.74326e-06
-1.47203e-06
-3.65807e-06
-1.19637e-06
-3.50216e-06
-9.30673e-07
-3.27229e-06
-6.82543e-07
-2.96654e-06
-4.60164e-07
-2.58455e-06
-2.72099e-07
-2.12774e-06
-1.27057e-07
-1.59941e-06
-3.36301e-08
-1.00474e-06
-3.51208e-07
-4.12081e-06
-4.30317e-08
-4.11292e-06
-4.28004e-07
-4.08598e-06
-8.12875e-07
-4.03939e-06
-1.19482e-06
-3.97252e-06
-1.57073e-06
-3.88467e-06
-1.93721e-06
-3.77522e-06
-2.29043e-06
-3.64361e-06
-2.62617e-06
-3.4895e-06
-2.93971e-06
-3.3128e-06
-3.22586e-06
-3.11384e-06
-3.47895e-06
-2.89348e-06
-3.69289e-06
-2.65321e-06
-3.86124e-06
-2.39531e-06
-3.97731e-06
-2.12295e-06
-4.03439e-06
-1.8403e-06
-4.02592e-06
-1.55257e-06
-3.9458e-06
-1.26605e-06
-3.78867e-06
-9.88082e-07
-3.55026e-06
-7.26901e-07
-3.22772e-06
-4.91517e-07
-2.81993e-06
-2.9145e-07
-2.32781e-06
-1.3646e-07
-1.7544e-06
-3.62272e-08
-1.10497e-06
-3.87435e-07
-4.14569e-06
-3.04963e-08
-4.14104e-06
-4.32662e-07
-4.11862e-06
-8.35291e-07
-4.07774e-06
-1.2357e-06
-4.01756e-06
-1.63091e-06
-3.93718e-06
-2.01759e-06
-3.83567e-06
-2.39195e-06
-3.71214e-06
-2.7497e-06
-3.56585e-06
-3.086e-06
-3.3963e-06
-3.3954e-06
-3.20339e-06
-3.67187e-06
-2.98752e-06
-3.90876e-06
-2.74979e-06
-4.09897e-06
-2.49211e-06
-4.23499e-06
-2.21741e-06
-4.30908e-06
-1.92974e-06
-4.31359e-06
-1.63438e-06
-4.24117e-06
-1.33786e-06
-4.08519e-06
-1.04798e-06
-3.84014e-06
-7.73693e-07
-3.502e-06
-5.24908e-07
-3.06872e-06
-3.12232e-07
-2.54048e-06
-1.46633e-07
-1.92e-06
-3.90573e-08
-1.21255e-06
-4.26492e-07
-4.13693e-06
-1.62342e-08
-4.13574e-06
-4.33853e-07
-4.11847e-06
-8.52555e-07
-4.08431e-06
-1.26986e-06
-4.03224e-06
-1.68298e-06
-3.96112e-06
-2.08871e-06
-3.8697e-06
-2.48337e-06
-3.75672e-06
-2.86268e-06
-3.62101e-06
-3.22171e-06
-3.4616e-06
-3.55482e-06
-3.27784e-06
-3.85562e-06
-3.06962e-06
-4.11698e-06
-2.83751e-06
-4.33108e-06
-2.58298e-06
-4.48952e-06
-2.30857e-06
-4.58349e-06
-2.01812e-06
-4.60404e-06
-1.71685e-06
-4.54244e-06
-1.4115e-06
-4.39054e-06
-1.11034e-06
-4.1413e-06
-8.23038e-07
-3.7893e-06
-5.60513e-07
-3.33124e-06
-3.34604e-07
-2.76639e-06
-1.57674e-07
-2.09693e-06
-4.21536e-08
-1.32807e-06
-4.68646e-07
-4.08863e-06
-4.81616e-10
-4.09108e-06
-4.31398e-07
-4.07957e-06
-8.64063e-07
-4.05317e-06
-1.29626e-06
-4.01069e-06
-1.72546e-06
-3.95072e-06
-2.14867e-06
-3.87172e-06
-2.56237e-06
-3.77202e-06
-2.96238e-06
-3.64996e-06
-3.34377e-06
-3.50403e-06
-3.70075e-06
-3.333e-06
-4.02666e-06
-3.13611e-06
-4.31387e-06
-2.91329e-06
-4.5539e-06
-2.66542e-06
-4.73739e-06
-2.39454e-06
-4.85437e-06
-2.10409e-06
-4.89449e-06
-1.79917e-06
-4.84736e-06
-1.48661e-06
-4.7031e-06
-1.17509e-06
-4.45282e-06
-8.75064e-07
-4.08933e-06
-5.9854e-07
-3.60777e-06
-3.58758e-07
-3.00617e-06
-1.69706e-07
-2.28598e-06
-4.55573e-08
-1.45222e-06
-5.14203e-07
-3.9943e-06
1.64285e-08
-4.00051e-06
-4.2519e-07
-3.99532e-06
-8.69251e-07
-3.97771e-06
-1.31388e-06
-3.94632e-06
-1.75684e-06
-3.89953e-06
-2.19547e-06
-3.83542e-06
-2.62648e-06
-3.75193e-06
-3.04587e-06
-3.64689e-06
-3.4488e-06
-3.5182e-06
-3.82945e-06
-3.36393e-06
-4.18092e-06
-3.1826e-06
-4.49521e-06
-2.97337e-06
-4.76312e-06
-2.73636e-06
-4.9744e-06
-2.47292e-06
-5.11781e-06
-2.18597e-06
-5.18144e-06
-1.88026e-06
-5.15307e-06
-1.56263e-06
-5.02072e-06
-1.24211e-06
-4.77334e-06
-9.29904e-07
-4.40154e-06
-6.39237e-07
-3.89843e-06
-3.84935e-07
-3.26048e-06
-1.82883e-07
-2.48803e-06
-4.9321e-08
-1.58578e-06
-5.63524e-07
-3.8469e-06
3.40618e-08
-3.85689e-06
-4.15206e-07
-3.85852e-06
-8.67621e-07
-3.85069e-06
-1.3217e-06
-3.83192e-06
-1.77562e-06
-3.80033e-06
-2.22707e-06
-3.7537e-06
-2.67311e-06
-3.68954e-06
-3.11003e-06
-3.60517e-06
-3.53317e-06
-3.49782e-06
-3.9368e-06
-3.36484e-06
-4.31391e-06
-3.20388e-06
-4.65616e-06
-3.01321e-06
-4.9538e-06
-2.792e-06
-5.1956e-06
-2.54074e-06
-5.36907e-06
-2.26157e-06
-5.4606e-06
-1.95873e-06
-5.45591e-06
-1.63884e-06
-5.34061e-06
-1.31118e-06
-5.10101e-06
-9.87694e-07
-4.72502e-06
-6.82901e-07
-4.20323e-06
-4.13435e-07
-3.52994e-06
-1.97403e-07
-2.70406e-06
-5.35127e-08
-1.72967e-06
-6.17037e-07
-3.63881e-06
5.18836e-08
-3.6525e-06
-4.01518e-07
-3.66136e-06
-8.58758e-07
-3.66425e-06
-1.31881e-06
-3.65955e-06
-1.78032e-06
-3.6452e-06
-2.24142e-06
-3.61868e-06
-2.69962e-06
-3.57711e-06
-3.1516e-06
-3.51725e-06
-3.59303e-06
-3.43569e-06
-4.01836e-06
-3.32895e-06
-4.42065e-06
-3.19376e-06
-4.79135e-06
-3.02732e-06
-5.12023e-06
-2.82771e-06
-5.39522e-06
-2.59427e-06
-5.60252e-06
-2.32813e-06
-5.72674e-06
-2.03273e-06
-5.75132e-06
-1.71423e-06
-5.65911e-06
-1.38197e-06
-5.43327e-06
-1.04857e-06
-5.05842e-06
-7.29895e-07
-4.5219e-06
-4.44639e-07
-3.8152e-06
-2.1352e-07
-2.93518e-06
-5.82217e-08
-1.88497e-06
-6.75259e-07
-3.36189e-06
6.92664e-08
-3.37911e-06
-3.84303e-07
-3.3955e-06
-8.42365e-07
-3.40991e-06
-1.3044e-06
-3.42065e-06
-1.76958e-06
-3.42549e-06
-2.23657e-06
-3.42169e-06
-2.70343e-06
-3.40597e-06
-3.16732e-06
-3.3746e-06
-3.6244e-06
-3.32351e-06
-4.06946e-06
-3.24837e-06
-4.49578e-06
-3.1449e-06
-4.89482e-06
-3.00912e-06
-5.25601e-06
-2.83778e-06
-5.56656e-06
-2.62884e-06
-5.81146e-06
-2.3821e-06
-5.97348e-06
-2.09982e-06
-6.03359e-06
-1.78742e-06
-5.97151e-06
-1.45397e-06
-5.76672e-06
-1.11263e-06
-5.39976e-06
-7.80656e-07
-4.85387e-06
-4.79032e-07
-4.11682e-06
-2.31569e-07
-3.18265e-06
-6.35669e-08
-2.05297e-06
-7.38826e-07
-3.0076e-06
8.55069e-08
-3.02805e-06
-3.63849e-07
-3.05213e-06
-8.18284e-07
-3.0787e-06
-1.27783e-06
-3.10606e-06
-1.74222e-06
-3.13189e-06
-2.21075e-06
-3.15324e-06
-2.68207e-06
-3.16656e-06
-3.154e-06
-3.16767e-06
-3.62328e-06
-3.15186e-06
-4.08527e-06
-3.11398e-06
-4.53366e-06
-3.04867e-06
-4.96013e-06
-2.95066e-06
-5.35402e-06
-2.81518e-06
-5.70204e-06
-2.63855e-06
-5.98809e-06
-2.41885e-06
-6.19318e-06
-2.15677e-06
-6.29567e-06
-1.85646e-06
-6.27182e-06
-1.52638e-06
-6.0968e-06
-1.17992e-06
-5.74621e-06
-8.35704e-07
-5.19809e-06
-5.17239e-07
-4.43529e-06
-2.51994e-07
-3.44789e-06
-6.97092e-08
-2.23525e-06
-8.08535e-07
-2.56701e-06
9.98527e-08
-2.59031e-06
-3.40549e-07
-2.62208e-06
-7.86522e-07
-2.66124e-06
-1.23866e-06
-2.70614e-06
-1.69732e-06
-2.75445e-06
-2.16244e-06
-2.80314e-06
-2.63338e-06
-2.84844e-06
-3.1087e-06
-2.88584e-06
-3.58589e-06
-2.91008e-06
-4.06104e-06
-2.91522e-06
-4.52852e-06
-2.89487e-06
-4.98048e-06
-2.84237e-06
-5.40652e-06
-2.75128e-06
-5.79313e-06
-2.61597e-06
-6.1234e-06
-2.4324e-06
-6.37674e-06
-2.19917e-06
-6.5289e-06
-1.9186e-06
-6.55239e-06
-1.59793e-06
-6.41748e-06
-1.25036e-06
-6.09379e-06
-8.95642e-07
-5.5528e-06
-5.60061e-07
-4.77087e-06
-2.7539e-07
-3.73256e-06
-7.68695e-08
-2.43377e-06
-8.85404e-07
-2.03105e-06
1.11542e-07
-2.0567e-06
-3.14895e-07
-2.09595e-06
-7.47271e-07
-2.14786e-06
-1.18675e-06
-2.21088e-06
-1.6343e-06
-2.28277e-06
-2.09055e-06
-2.36053e-06
-2.55562e-06
-2.44033e-06
-3.0289e-06
-2.51743e-06
-3.50878e-06
-2.5862e-06
-3.99228e-06
-2.64004e-06
-4.47467e-06
-2.67156e-06
-4.94896e-06
-2.67276e-06
-5.40533e-06
-2.63539e-06
-5.8305e-06
-2.55163e-06
-6.20716e-06
-2.41491e-06
-6.51346e-06
-2.22109e-06
-6.72272e-06
-1.96993e-06
-6.80356e-06
-1.66665e-06
-6.72075e-06
-1.32354e-06
-6.43689e-06
-9.61129e-07
-5.91522e-06
-6.08522e-07
-5.12347e-06
-3.02562e-07
-4.03852e-06
-8.53569e-08
-2.65098e-06
-9.70761e-07
-1.39056e-06
1.19854e-07
-1.418e-06
-2.87458e-07
-1.46434e-06
-7.0093e-07
-1.52883e-06
-1.12226e-06
-1.6101e-06
-1.55303e-06
-1.70612e-06
-1.99453e-06
-1.81405e-06
-2.44769e-06
-1.93017e-06
-2.91278e-06
-2.04975e-06
-3.3892e-06
-2.16694e-06
-3.87509e-06
-2.2747e-06
-4.36691e-06
-2.36483e-06
-4.85883e-06
-2.42807e-06
-5.34209e-06
-2.45437e-06
-5.80419e-06
-2.43353e-06
-6.228e-06
-2.35602e-06
-6.59097e-06
-2.21435e-06
-6.8644e-06
-2.00475e-06
-7.01315e-06
-1.72939e-06
-6.99611e-06
-1.39858e-06
-6.76771e-06
-1.03281e-06
-6.28098e-06
-6.63924e-07
-5.49236e-06
-3.3461e-07
-4.36784e-06
-9.56134e-08
-2.88998e-06
-1.06637e-06
-6.36633e-07
1.24174e-07
-6.65228e-07
-2.58863e-07
-7.18046e-07
-6.48112e-07
-7.94555e-07
-1.04575e-06
-8.93673e-07
-1.45391e-06
-1.01367e-06
-1.87454e-06
-1.15205e-06
-2.30931e-06
-1.30539e-06
-2.75944e-06
-1.4692e-06
-3.22539e-06
-1.63771e-06
-3.70658e-06
-1.80373e-06
-4.20088e-06
-1.95855e-06
-4.70401e-06
-2.09188e-06
-5.20876e-06
-2.19204e-06
-5.70403e-06
-2.24637e-06
-6.17367e-06
-2.2421e-06
-6.59525e-06
-2.16767e-06
-6.93882e-06
-2.0148e-06
-7.16602e-06
-1.78116e-06
-7.22975e-06
-1.47355e-06
-7.07533e-06
-1.11113e-06
-6.6434e-06
-7.27887e-07
-5.8756e-06
-3.73056e-07
-4.72267e-06
-1.08286e-07
-3.15475e-06
-1.17466e-06
2.39229e-07
1.2406e-07
2.10116e-07
-2.2975e-07
1.51651e-07
-5.89647e-07
6.40986e-08
-9.58202e-07
-5.18146e-08
-1.338e-06
-1.94795e-07
-1.73156e-06
-3.62839e-07
-2.14127e-06
-5.53062e-07
-2.56921e-06
-7.61476e-07
-3.01698e-06
-9.82751e-07
-3.48531e-06
-1.20994e-06
-3.97369e-06
-1.43425e-06
-4.47971e-06
-1.64479e-06
-4.99822e-06
-1.82858e-06
-5.52024e-06
-1.97073e-06
-6.03152e-06
-2.05506e-06
-6.51091e-06
-2.06544e-06
-6.92844e-06
-1.98793e-06
-7.24353e-06
-1.81399e-06
-7.40369e-06
-1.54477e-06
-7.34455e-06
-1.19597e-06
-6.9922e-06
-8.02341e-07
-6.26923e-06
-4.2002e-07
-5.10499e-06
-1.2435e-07
-3.45042e-06
-1.29901e-06
1.24474e-06
1.19323e-07
1.21572e-06
-2.00735e-07
1.15265e-06
-5.26578e-07
1.0555e-06
-8.61044e-07
9.24556e-07
-1.20705e-06
7.60585e-07
-1.56759e-06
5.64927e-07
-1.94561e-06
3.39712e-07
-2.344e-06
8.8107e-08
-2.76537e-06
-1.8538e-07
-3.21182e-06
-4.74535e-07
-3.68453e-06
-7.71039e-07
-4.18321e-06
-1.06406e-06
-4.7052e-06
-1.33994e-06
-5.24436e-06
-1.58205e-06
-5.78942e-06
-1.77108e-06
-6.32189e-06
-1.88602e-06
-6.8135e-06
-1.90627e-06
-7.22328e-06
-1.81517e-06
-7.49479e-06
-1.60538e-06
-7.55434e-06
-1.28585e-06
-7.31173e-06
-8.89384e-07
-6.6657e-06
-4.7846e-07
-5.51591e-06
-1.4532e-07
-3.78356e-06
-1.44433e-06
2.3865e-06
1.10095e-07
2.35813e-06
-1.72367e-07
2.29169e-06
-4.60142e-07
2.18685e-06
-7.56197e-07
2.04343e-06
-1.06364e-06
1.86157e-06
-1.38573e-06
1.64182e-06
-1.72585e-06
1.38534e-06
-2.08752e-06
1.09418e-06
-2.47421e-06
7.71611e-07
-2.88926e-06
4.2258e-07
-3.3355e-06
5.42156e-08
-3.81484e-06
-3.2354e-07
-4.32744e-06
-6.97293e-07
-4.87061e-06
-1.04964e-06
-5.43707e-06
-1.3589e-06
-6.01263e-06
-1.5995e-06
-6.57289e-06
-1.74358e-06
-7.0792e-06
-1.76448e-06
-7.4739e-06
-1.64293e-06
-7.67589e-06
-1.37636e-06
-7.57829e-06
-9.9077e-07
-7.05129e-06
-5.52456e-07
-5.95422e-06
-1.73618e-07
-4.16239e-06
-1.61795e-06
3.6696e-06
9.68841e-08
3.64232e-06
-1.45086e-07
3.57394e-06
-3.91756e-07
3.4638e-06
-6.46059e-07
3.31128e-06
-9.11116e-07
3.11582e-06
-1.19027e-06
2.8771e-06
-1.48714e-06
2.59517e-06
-1.80558e-06
2.27069e-06
-2.14973e-06
1.90533e-06
-2.5239e-06
1.50221e-06
-2.93238e-06
1.0665e-06
-3.37913e-06
6.06233e-07
-3.86718e-06
1.33274e-07
-4.39765e-06
-3.35669e-07
-4.96813e-06
-7.78047e-07
-5.57025e-06
-1.16492e-06
-6.18602e-06
-1.46153e-06
-6.7826e-06
-1.62991e-06
-7.30551e-06
-1.63522e-06
-7.67059e-06
-1.45702e-06
-7.75649e-06
-1.1065e-06
-7.40182e-06
-6.47404e-07
-6.41332e-06
-2.13206e-07
-4.59659e-06
-1.83115e-06
5.09723e-06
8.05999e-08
5.07135e-06
-1.19206e-07
5.00258e-06
-3.2299e-07
4.89001e-06
-5.33493e-07
4.73256e-06
-7.53667e-07
4.52903e-06
-9.86737e-07
4.27816e-06
-1.23627e-06
3.97883e-06
-1.50624e-06
3.63017e-06
-1.80108e-06
3.23196e-06
-2.12569e-06
2.785e-06
-2.48542e-06
2.29178e-06
-2.88591e-06
1.75736e-06
-3.33276e-06
1.19054e-06
-3.83083e-06
6.05366e-07
-4.38295e-06
2.28896e-08
-4.98778e-06
-5.27062e-07
-5.63606e-06
-1.00475e-06
-6.30491e-06
-1.36128e-06
-6.94899e-06
-1.54335e-06
-7.48851e-06
-1.50527e-06
-7.79456e-06
-1.23131e-06
-7.67578e-06
-7.69604e-07
-6.87503e-06
-2.70607e-07
-5.09559e-06
-2.10176e-06
6.67019e-06
6.25347e-08
6.6459e-06
-9.49137e-08
6.57846e-06
-2.55556e-07
6.46676e-06
-4.21794e-07
6.30934e-06
-5.9624e-07
6.1044e-06
-7.81796e-07
5.84987e-06
-9.81741e-07
5.54346e-06
-1.19983e-06
5.18279e-06
-1.44041e-06
4.76561e-06
-1.70851e-06
4.29016e-06
-2.00996e-06
3.75568e-06
-2.35143e-06
3.16327e-06
-2.74036e-06
2.51715e-06
-3.1847e-06
1.82639e-06
-3.69219e-06
1.10738e-06
-4.26876e-06
3.86841e-07
-4.91553e-06
-2.94824e-07
-5.62324e-06
-8.81101e-07
-6.36271e-06
-1.30032e-06
-7.06929e-06
-1.47495e-06
-7.61994e-06
-1.34647e-06
-7.80425e-06
-9.23732e-07
-7.29777e-06
-3.56273e-07
-5.66305e-06
-2.45803e-06
8.38656e-06
4.42818e-08
8.36396e-06
-7.23132e-08
8.29972e-06
-1.91308e-07
8.19257e-06
-3.14648e-07
8.0408e-06
-4.4447e-07
7.84218e-06
-5.83177e-07
7.59398e-06
-7.33538e-07
7.29294e-06
-8.988e-07
6.93536e-06
-1.08282e-06
6.5171e-06
-1.29026e-06
6.03385e-06
-1.52672e-06
5.48144e-06
-1.79901e-06
4.85645e-06
-2.11537e-06
4.1573e-06
-2.48555e-06
3.38591e-06
-2.92081e-06
2.55043e-06
-3.43328e-06
1.66917e-06
-4.03427e-06
7.76089e-07
-4.73016e-06
-7.26792e-08
-5.51394e-06
-7.93246e-07
-6.34872e-06
-1.27514e-06
-7.13804e-06
-1.40099e-06
-7.6784e-06
-1.10342e-06
-7.59534e-06
-4.84948e-07
-6.28152e-06
-2.94298e-06
1.02413e-05
2.75777e-08
1.02205e-05
-5.15219e-08
1.01615e-05
-1.32269e-07
1.00629e-05
-2.16087e-07
9.923e-06
-3.04551e-07
9.73928e-06
-3.99454e-07
9.50863e-06
-5.02891e-07
9.2272e-06
-6.1737e-07
8.89032e-06
-7.45943e-07
8.49246e-06
-8.92393e-07
8.0272e-06
-1.06146e-06
7.48734e-06
-1.25915e-06
6.86511e-06
-1.49313e-06
6.15276e-06
-1.7732e-06
5.34376e-06
-2.11181e-06
4.43501e-06
-2.52454e-06
3.4308e-06
-3.03006e-06
2.34935e-06
-3.6487e-06
1.23297e-06
-4.39756e-06
1.61721e-07
-5.27747e-06
-7.33374e-07
-6.24295e-06
-1.27074e-06
-7.14104e-06
-1.26163e-06
-7.60444e-06
-6.68221e-07
-6.87493e-06
-3.6112e-06
1.2226e-05
1.40585e-08
1.22073e-05
-3.28276e-08
1.21558e-05
-8.07016e-08
1.20701e-05
-1.30463e-07
1.19487e-05
-1.8311e-07
1.1789e-05
-2.39791e-07
1.1588e-05
-3.01867e-07
1.13416e-05
-3.7099e-07
1.10449e-05
-4.49212e-07