 Entering Gaussian System, Link 0=g16
 Input=/users/mfricke/test_programs/pbs_examples/gaussian/AcetylChloride.com
 Output=/users/mfricke/test_programs/pbs_examples/gaussian/AcetyleChloride.log
 Initial command:
 /opt/local/gaussian/g16/C.01/avx2/g16/l1.exe "/carc/scratch/users/mfricke/Gau-260972.inp" -scrdir="/carc/scratch/users/mfricke/"
 Default linda workers: hopper001,hopper002
 Default is to use   2 SMP processors on each worker.
 Entering Link 1 = /opt/local/gaussian/g16/C.01/avx2/g16/l1.exe PID=    260973.
  
 Copyright (c) 1988-2019, Gaussian, Inc.  All Rights Reserved.
  
 This is part of the Gaussian(R) 16 program.  It is based on
 the Gaussian(R) 09 system (copyright 2009, Gaussian, Inc.),
 the Gaussian(R) 03 system (copyright 2003, Gaussian, Inc.),
 the Gaussian(R) 98 system (copyright 1998, Gaussian, Inc.),
 the Gaussian(R) 94 system (copyright 1995, Gaussian, Inc.),
 the Gaussian 92(TM) system (copyright 1992, Gaussian, Inc.),
 the Gaussian 90(TM) system (copyright 1990, Gaussian, Inc.),
 the Gaussian 88(TM) system (copyright 1988, Gaussian, Inc.),
 the Gaussian 86(TM) system (copyright 1986, Carnegie Mellon
 University), and the Gaussian 82(TM) system (copyright 1983,
 Carnegie Mellon University). Gaussian is a federally registered
 trademark of Gaussian, Inc.
  
 This software contains proprietary and confidential information,
 including trade secrets, belonging to Gaussian, Inc.
  
 This software is provided under written license and may be
 used, copied, transmitted, or stored only in accord with that
 written license.
  
 The following legend is applicable only to US Government
 contracts under FAR:
  
                    RESTRICTED RIGHTS LEGEND
  
 Use, reproduction and disclosure by the US Government is
 subject to restrictions as set forth in subparagraphs (a)
 and (c) of the Commercial Computer Software - Restricted
 Rights clause in FAR 52.227-19.
  
 Gaussian, Inc.
 340 Quinnipiac St., Bldg. 40, Wallingford CT 06492
  
  
 ---------------------------------------------------------------
 Warning -- This program may not be used in any manner that
 competes with the business of Gaussian, Inc. or will provide
 assistance to any competitor of Gaussian, Inc.  The licensee
 of this program is prohibited from giving any competitor of
 Gaussian, Inc. access to this program.  By using this program,
 the user acknowledges that Gaussian, Inc. is engaged in the
 business of creating and licensing software in the field of
 computational chemistry and represents and warrants to the
 licensee that it is not a competitor of Gaussian, Inc. and that
 it will not use this program in any manner prohibited above.
 ---------------------------------------------------------------
  

 Cite this work as:
 Gaussian 16, Revision C.01,
 M. J. Frisch, G. W. Trucks, H. B. Schlegel, G. E. Scuseria, 
 M. A. Robb, J. R. Cheeseman, G. Scalmani, V. Barone, 
 G. A. Petersson, H. Nakatsuji, X. Li, M. Caricato, A. V. Marenich, 
 J. Bloino, B. G. Janesko, R. Gomperts, B. Mennucci, H. P. Hratchian, 
 J. V. Ortiz, A. F. Izmaylov, J. L. Sonnenberg, D. Williams-Young, 
 F. Ding, F. Lipparini, F. Egidi, J. Goings, B. Peng, A. Petrone, 
 T. Henderson, D. Ranasinghe, V. G. Zakrzewski, J. Gao, N. Rega, 
 G. Zheng, W. Liang, M. Hada, M. Ehara, K. Toyota, R. Fukuda, 
 J. Hasegawa, M. Ishida, T. Nakajima, Y. Honda, O. Kitao, H. Nakai, 
 T. Vreven, K. Throssell, J. A. Montgomery, Jr., J. E. Peralta, 
 F. Ogliaro, M. J. Bearpark, J. J. Heyd, E. N. Brothers, K. N. Kudin, 
 V. N. Staroverov, T. A. Keith, R. Kobayashi, J. Normand, 
 K. Raghavachari, A. P. Rendell, J. C. Burant, S. S. Iyengar, 
 J. Tomasi, M. Cossi, J. M. Millam, M. Klene, C. Adamo, R. Cammi, 
 J. W. Ochterski, R. L. Martin, K. Morokuma, O. Farkas, 
 J. B. Foresman, and D. J. Fox, Gaussian, Inc., Wallingford CT, 2019.
 
 ******************************************
 Gaussian 16:  ES64L-G16RevC.01  3-Jul-2019
                12-Sep-2023 
 ******************************************
 %NProcShared=16
 Will use up to   16 processors via shared memory.
 %Chk=AcetylChloride.chk
 SetLPE:  input flags="-v "
 SetLPE:    new flags="-v -opt 'Tsnet.Node.lindarsharg: ssh'  -nodelist 'hopper001 hopper002' -env GAUSS_MDEF=0 -env GAUSS_EXEDIR="/opt/local/gaussian/g16/C.01/avx2/g16/bsd:/opt/local/gaussian/g16/C.01/avx2/g16/local:/opt/local/gaussian/g16/C.01/avx2/g16/extras:/opt/local/gaussian/g16/C.01/avx2/g16""
 Will use up to    2 processors via Linda.
 ---------------------
 #n B3LYP/6-31G(d) Opt
 ---------------------
 1/18=20,19=15,26=3,38=1/1,3;
 2/9=110,12=2,17=6,18=5,40=1/2;
 3/5=1,6=6,7=1,11=2,25=1,30=1,71=1,74=-5/1,2,3;
 4//1;
 5/5=2,38=5/2;
 6/7=2,8=2,9=2,10=2,28=1/1;
 7//1,2,3,16;
 1/18=20,19=15,26=3/3(2);
 2/9=110/2;
 99//99;
 2/9=110/2;
 3/5=1,6=6,7=1,11=2,25=1,30=1,71=1,74=-5/1,2,3;
 4/5=5,16=3,69=1/1;
 5/5=2,38=5/2;
 7//1,2,3,16;
 1/18=20,19=15,26=3/3(-5);
 2/9=110/2;
 6/7=2,8=2,9=2,10=2,19=2,28=1/1;
 99/9=1/99;
 --------------
 AcetylChloride
 --------------
 Symbolic Z-matrix:
 Charge =  0 Multiplicity = 1
 C
 C                    1    B1
 Cl                   1    B2       2    A2
 O                    1    B3       2    A3       3    D3       0
 H                    2    B4       1    A4       3    D4       0
 H                    2    B5       1    A5       3    D5       0
 H                    2    B6       1    A6       3    D6       0
       Variables:
  B1                    4.17814                  
  B2                    4.00987                  
  A2                  134.73875                  
  B3                    3.58216                  
  A3                  164.02878                  
  D3                  179.99998                  
  B4                    1.07                     
  A4                  109.471                    
  D4                    0.00002                  
  B5                    1.07                     
  A5                  109.47128                  
  D5                  240.00006                  
  B6                    1.07                     
  A6                  109.47135                  
  D6                  120.00012                  
 
     3 tetrahedral angles replaced.
 Add virtual bond connecting atoms O4         and C1         Dist= 6.77D+00.
 Add virtual bond connecting atoms C1         and Cl3        Dist= 7.58D+00.
 Add virtual bond connecting atoms O4         and Cl3        Dist= 7.34D+00.
 Add virtual bond connecting atoms C2         and C1         Dist= 7.90D+00.

 GradGradGradGradGradGradGradGradGradGradGradGradGradGradGradGradGradGrad
 Berny optimization.
 Initialization pass.
                           ----------------------------
                           !    Initial Parameters    !
                           ! (Angstroms and Degrees)  !
 --------------------------                            --------------------------
 ! Name  Definition              Value          Derivative Info.                !
 --------------------------------------------------------------------------------
 ! R1    R(1,2)                  4.1781         estimate D2E/DX2                !
 ! R2    R(1,3)                  4.0099         estimate D2E/DX2                !
 ! R3    R(1,4)                  3.5822         estimate D2E/DX2                !
 ! R4    R(2,5)                  1.07           estimate D2E/DX2                !
 ! R5    R(2,6)                  1.07           estimate D2E/DX2                !
 ! R6    R(2,7)                  1.07           estimate D2E/DX2                !
 ! R7    R(3,4)                  3.884          estimate D2E/DX2                !
 ! A1    A(2,1,3)              134.7388         estimate D2E/DX2                !
 ! A2    A(2,1,4)              164.0288         estimate D2E/DX2                !
 ! A3    A(1,2,5)              109.4712         estimate D2E/DX2                !
 ! A4    A(1,2,6)              109.4712         estimate D2E/DX2                !
 ! A5    A(1,2,7)              109.4712         estimate D2E/DX2                !
 ! A6    A(5,2,6)              109.4712         estimate D2E/DX2                !
 ! A7    A(5,2,7)              109.4713         estimate D2E/DX2                !
 ! A8    A(6,2,7)              109.4712         estimate D2E/DX2                !
 ! D1    D(3,1,2,5)              0.0            estimate D2E/DX2                !
 ! D2    D(3,1,2,6)           -119.9999         estimate D2E/DX2                !
 ! D3    D(3,1,2,7)            120.0001         estimate D2E/DX2                !
 ! D4    D(4,1,2,5)            180.0            estimate D2E/DX2                !
 ! D5    D(4,1,2,6)             60.0            estimate D2E/DX2                !
 ! D6    D(4,1,2,7)            -59.9999         estimate D2E/DX2                !
 --------------------------------------------------------------------------------
 Trust Radius=3.00D-01 FncErr=1.00D-07 GrdErr=1.00D-06 EigMax=2.50D+02 EigMin=1.00D-04
 Number of steps in this run=     31 maximum allowed number of steps=    100.
 GradGradGradGradGradGradGradGradGradGradGradGradGradGradGradGradGradGrad

                          Input orientation:                          
 ---------------------------------------------------------------------
 Center     Atomic      Atomic             Coordinates (Angstroms)
 Number     Number       Type             X           Y           Z
 ---------------------------------------------------------------------
      1          6           0        0.000000    0.000000    0.000000
      2          6           0        0.000000    0.000000    4.178140
      3         17           0        2.848305    0.000000   -2.822448
      4          8           0       -0.985647   -0.000000   -3.443889
      5          1           0        1.008806    0.000000    4.534807
      6          1           0       -0.504402   -0.873652    4.534807
      7          1           0       -0.504405    0.873650    4.534807
 ---------------------------------------------------------------------
                    Distance matrix (angstroms):
                    1          2          3          4          5
     1  C    0.000000
     2  C    4.178140   0.000000
     3  Cl   4.009870   7.557849   0.000000
     4  O    3.582160   7.685494   3.883990   0.000000
     5  H    4.645660   1.070000   7.583730   8.224197   0.000000
     6  H    4.645660   1.070000   8.132227   8.040799   1.747302
     7  H    4.645660   1.070000   8.132228   8.040798   1.747304
                    6          7
     6  H    0.000000
     7  H    1.747302   0.000000
 Stoichiometry    C2H3ClO
 Framework group  C1[X(C2H3ClO)]
 Deg. of freedom    15
 Full point group                 C1      NOp   1
 Largest Abelian subgroup         C1      NOp   1
 Largest concise Abelian subgroup C1      NOp   1
                         Standard orientation:                         
 ---------------------------------------------------------------------
 Center     Atomic      Atomic             Coordinates (Angstroms)
 Number     Number       Type             X           Y           Z
 ---------------------------------------------------------------------
      1          6           0        1.148157    0.746895   -0.000000
      2          6           0        5.189999   -0.311578   -0.000000
      3         17           0       -2.303797   -1.293465   -0.000000
      4          8           0       -1.933686    2.572851    0.000000
      5          1           0        5.279464   -1.377832   -0.000000
      6          1           0        5.662814    0.086012    0.873652
      7          1           0        5.662815    0.086015   -0.873650
 ---------------------------------------------------------------------
 Rotational constants (GHZ):           2.8789620           0.7493678           0.5967594
 Standard basis: 6-31G(d) (6D, 7F)
 There are    70 symmetry adapted cartesian basis functions of A   symmetry.
 There are    70 symmetry adapted basis functions of A   symmetry.
    70 basis functions,   148 primitive gaussians,    70 cartesian basis functions
    20 alpha electrons       20 beta electrons
       nuclear repulsion energy        70.9146620410 Hartrees.
 NAtoms=    7 NActive=    7 NUniq=    7 SFac= 1.00D+00 NAtFMM=   60 NAOKFM=F Big=F
 Integral buffers will be    131072 words long.
 Raffenetti 2 integral format.
 Two-electron integral symmetry is turned on.
 One-electron integrals computed using PRISM.
 NBasis=    70 RedAO= T EigKep=  1.97D-02  NBF=    70
 NBsUse=    70 1.00D-06 EigRej= -1.00D+00 NBFU=    70
 ExpMin= 1.43D-01 ExpMax= 2.52D+04 ExpMxC= 3.78D+03 IAcc=3 IRadAn=         5 AccDes= 0.00D+00
 Harris functional with IExCor=  402 and IRadAn=       5 diagonalized for initial guess.
 HarFok:  IExCor=  402 AccDes= 0.00D+00 IRadAn=         5 IDoV= 1 UseB2=F ITyADJ=14
 ICtDFT=  3500011 ScaDFX=  1.000000  1.000000  1.000000  1.000000
 FoFCou: FMM=F IPFlag=           0 FMFlag=      100000 FMFlg1=           0
         NFxFlg=           0 DoJE=T BraDBF=F KetDBF=T FulRan=T
         wScrn=  0.000000 ICntrl=       500 IOpCl=  0 I1Cent=   200000004 NGrid=           0
         NMat0=    1 NMatS0=      1 NMatT0=    0 NMatD0=    1 NMtDS0=    0 NMtDT0=    0
 Petite list used in FoFCou.
 Keep R1 ints in memory in canonical form, NReq=17384286.
 Requested convergence on RMS density matrix=1.00D-08 within 128 cycles.
 Requested convergence on MAX density matrix=1.00D-06.
 Requested convergence on             energy=1.00D-06.
 No special actions if energy rises.
 Integral accuracy reduced to 1.0D-05 until final iterations.
 EnCoef did     2 forward-backward iterations
 EnCoef did   100 forward-backward iterations
 EnCoef did   100 forward-backward iterations
 EnCoef did   100 forward-backward iterations
 EnCoef did   100 forward-backward iterations
 EnCoef did   100 forward-backward iterations
 EnCoef did     5 forward-backward iterations
 EnCoef did   100 forward-backward iterations
 EnCoef did   100 forward-backward iterations
 EnCoef did   100 forward-backward iterations
 EnCoef did   100 forward-backward iterations
 EnCoef did   100 forward-backward iterations
 Problem detected with inexpensive integrals.
 Switching to full accuracy and repeating last cycle.
 EnCoef did     4 forward-backward iterations
 EnCoef did   100 forward-backward iterations
 EnCoef did   100 forward-backward iterations
 EnCoef did   100 forward-backward iterations
 EnCoef did     3 forward-backward iterations
 EnCoef did     6 forward-backward iterations
 EnCoef did     7 forward-backward iterations
 EnCoef did   100 forward-backward iterations
 EnCoef did   100 forward-backward iterations
 Rare condition: small coef for last iteration:  0.594D-15
 EnCoef did   100 forward-backward iterations
 EnCoef did   100 forward-backward iterations
 EnCoef did   100 forward-backward iterations
 Rare condition: small coef for last iteration:  0.714D-14
 EnCoef did   100 forward-backward iterations
 Rare condition: small coef for last iteration:  0.000D+00
 EnCoef did   100 forward-backward iterations
 EnCoef did   100 forward-backward iterations
 EnCoef did   100 forward-backward iterations
 EnCoef did   100 forward-backward iterations
 EnCoef did   100 forward-backward iterations
 EnCoef did   100 forward-backward iterations
 EnCoef did   100 forward-backward iterations
 EnCoef did     2 forward-backward iterations
 EnCoef did     3 forward-backward iterations
 EnCoef did     1 forward-backward iterations
 Rare condition: small coef for last iteration:  0.000D+00
 Rare condition: small coef for last iteration:  0.000D+00
 Rare condition: small coef for last iteration:  0.000D+00
 EnCoef did   100 forward-backward iterations
 Rare condition: small coef for last iteration:  0.000D+00
 Rare condition: small coef for last iteration:  0.000D+00
 EnCoef did     5 forward-backward iterations
 EnCoef did     2 forward-backward iterations
 Rare condition: small coef for last iteration:  0.000D+00
 Rare condition: small coef for last iteration:  0.000D+00
 EnCoef did     2 forward-backward iterations
 EnCoef did   100 forward-backward iterations
 EnCoef did    12 forward-backward iterations
 EnCoef did   100 forward-backward iterations
 EnCoef did   100 forward-backward iterations
 Rare condition: small coef for last iteration:  0.000D+00
 Rare condition: small coef for last iteration:  0.000D+00
 EnCoef did   100 forward-backward iterations
 EnCoef did   100 forward-backward iterations
 Rare condition: small coef for last iteration: -0.114D-15
 >>>>>>>>>> Convergence criterion not met.
 SCF Done:  E(RB3LYP) =  -612.673113428     A.U. after  129 cycles
            NFock=128  Conv=0.13D-07     -V/T= 2.0047
 Convergence failure -- run terminated.
 Error termination via Lnk1e in /opt/local/gaussian/g16/C.01/avx2/g16/linda-exe/l502.exel at Tue Sep 12 13:13:17 2023.
 Job cpu time:       0 days  0 hours 29 minutes 54.4 seconds.
 Elapsed time:       0 days  0 hours  2 minutes 13.1 seconds.
 File lengths (MBytes):  RWF=     15 Int=      0 D2E=      0 Chk=      1 Scr=      1
failed to open execfile
