 Entering Gaussian System, Link 0=g16
 Input=/projects/systems/test_programs/pbs_examples/gaussian/CH3COCl.com
 Output=/projects/systems/test_programs/pbs_examples/gaussian/CH3COCl.log
 Initial command:
 /opt/local/gaussian/g16/C.01/sse4_2/g16/l1.exe "/wheeler/scratch/mfricke/Gau-21984.inp" -scrdir="/wheeler/scratch/mfricke/"
 Default linda workers: wheeler301
 Entering Link 1 = /opt/local/gaussian/g16/C.01/sse4_2/g16/l1.exe PID=     21985.
  
 Copyright (c) 1988-2019, Gaussian, Inc.  All Rights Reserved.
  
 This is part of the Gaussian(R) 16 program.  It is based on
 the Gaussian(R) 09 system (copyright 2009, Gaussian, Inc.),
 the Gaussian(R) 03 system (copyright 2003, Gaussian, Inc.),
 the Gaussian(R) 98 system (copyright 1998, Gaussian, Inc.),
 the Gaussian(R) 94 system (copyright 1995, Gaussian, Inc.),
 the Gaussian 92(TM) system (copyright 1992, Gaussian, Inc.),
 the Gaussian 90(TM) system (copyright 1990, Gaussian, Inc.),
 the Gaussian 88(TM) system (copyright 1988, Gaussian, Inc.),
 the Gaussian 86(TM) system (copyright 1986, Carnegie Mellon
 University), and the Gaussian 82(TM) system (copyright 1983,
 Carnegie Mellon University). Gaussian is a federally registered
 trademark of Gaussian, Inc.
  
 This software contains proprietary and confidential information,
 including trade secrets, belonging to Gaussian, Inc.
  
 This software is provided under written license and may be
 used, copied, transmitted, or stored only in accord with that
 written license.
  
 The following legend is applicable only to US Government
 contracts under FAR:
  
                    RESTRICTED RIGHTS LEGEND
  
 Use, reproduction and disclosure by the US Government is
 subject to restrictions as set forth in subparagraphs (a)
 and (c) of the Commercial Computer Software - Restricted
 Rights clause in FAR 52.227-19.
  
 Gaussian, Inc.
 340 Quinnipiac St., Bldg. 40, Wallingford CT 06492
  
  
 ---------------------------------------------------------------
 Warning -- This program may not be used in any manner that
 competes with the business of Gaussian, Inc. or will provide
 assistance to any competitor of Gaussian, Inc.  The licensee
 of this program is prohibited from giving any competitor of
 Gaussian, Inc. access to this program.  By using this program,
 the user acknowledges that Gaussian, Inc. is engaged in the
 business of creating and licensing software in the field of
 computational chemistry and represents and warrants to the
 licensee that it is not a competitor of Gaussian, Inc. and that
 it will not use this program in any manner prohibited above.
 ---------------------------------------------------------------
  

 Cite this work as:
 Gaussian 16, Revision C.01,
 M. J. Frisch, G. W. Trucks, H. B. Schlegel, G. E. Scuseria, 
 M. A. Robb, J. R. Cheeseman, G. Scalmani, V. Barone, 
 G. A. Petersson, H. Nakatsuji, X. Li, M. Caricato, A. V. Marenich, 
 J. Bloino, B. G. Janesko, R. Gomperts, B. Mennucci, H. P. Hratchian, 
 J. V. Ortiz, A. F. Izmaylov, J. L. Sonnenberg, D. Williams-Young, 
 F. Ding, F. Lipparini, F. Egidi, J. Goings, B. Peng, A. Petrone, 
 T. Henderson, D. Ranasinghe, V. G. Zakrzewski, J. Gao, N. Rega, 
 G. Zheng, W. Liang, M. Hada, M. Ehara, K. Toyota, R. Fukuda, 
 J. Hasegawa, M. Ishida, T. Nakajima, Y. Honda, O. Kitao, H. Nakai, 
 T. Vreven, K. Throssell, J. A. Montgomery, Jr., J. E. Peralta, 
 F. Ogliaro, M. J. Bearpark, J. J. Heyd, E. N. Brothers, K. N. Kudin, 
 V. N. Staroverov, T. A. Keith, R. Kobayashi, J. Normand, 
 K. Raghavachari, A. P. Rendell, J. C. Burant, S. S. Iyengar, 
 J. Tomasi, M. Cossi, J. M. Millam, M. Klene, C. Adamo, R. Cammi, 
 J. W. Ochterski, R. L. Martin, K. Morokuma, O. Farkas, 
 J. B. Foresman, and D. J. Fox, Gaussian, Inc., Wallingford CT, 2019.
 
 ******************************************
 Gaussian 16:  ES64L-G16RevC.01  3-Jul-2019
                 1-Sep-2020 
 ******************************************
 %NProcShared=2
 Will use up to    2 processors via shared memory.
 SetLPE:  input flags="-v "
 SetLPE:    new flags="-v -opt 'Tsnet.Node.lindarsharg: ssh'  -nodelist 'wheeler301.wheeler.alliance.unm.edu' -env GAUSS_MDEF=0 -env GAUSS_EXEDIR="/opt/local/gaussian/g16/C.01/sse4_2/g16/bsd:/opt/local/gaussian/g16/C.01/sse4_2/g16/local:/opt/local/gaussian/g16/C.01/sse4_2/g16/extras:/opt/local/gaussian/g16/C.01/sse4_2/g16""
 Will use up to    1 processors via Linda.
 ---------------------
 #n B3LYP/6-31G(d) Opt
 ---------------------
 1/18=20,19=15,26=3,38=1/1,3;
 2/9=110,12=2,17=6,18=5,40=1/2;
 3/5=1,6=6,7=1,11=2,25=1,30=1,71=1,74=-5/1,2,3;
 4//1;
 5/5=2,38=5/2;
 6/7=2,8=2,9=2,10=2,28=1/1;
 7//1,2,3,16;
 1/18=20,19=15,26=3/3(2);
 2/9=110/2;
 99//99;
 2/9=110/2;
 3/5=1,6=6,7=1,11=2,25=1,30=1,71=1,74=-5/1,2,3;
 4/5=5,16=3,69=1/1;
 5/5=2,38=5/2;
 7//1,2,3,16;
 1/18=20,19=15,26=3/3(-5);
 2/9=110/2;
 6/7=2,8=2,9=2,10=2,19=2,28=1/1;
 99/9=1/99;
 ---------------
 Acetyl-Chloride
 ---------------
 Symbolic Z-matrix:
 Charge =  0 Multiplicity = 1
 C
 C                    1    B1
 H                    2    B2       1    A2
 H                    2    B3       1    A3       3    D3       0
 H                    2    B4       1    A4       3    D4       0
 O                    1    B5       2    A5       3    D5       0
 Cl                   1    B6       2    A6       3    D6       0
       Variables:
  B1                    2.16081                  
  B2                    1.07                     
  A2                  109.471                    
  B3                    1.07                     
  A3                  109.47128                  
  D3                  240.00003                  
  B4                    1.07                     
  A4                  109.47135                  
  D4                  120.0001                   
  B5                    2.06404                  
  A5                   66.74886                  
  D5                   41.41449                  
  B6                    2.68569                  
  A6                   91.20309                  
  D6                  286.38997                  
 
     3 tetrahedral angles replaced.
 Add virtual bond connecting atoms O6         and C1         Dist= 3.90D+00.
 Add virtual bond connecting atoms C1         and C2         Dist= 4.08D+00.
 Add virtual bond connecting atoms O6         and H3         Dist= 4.07D+00.
 Add virtual bond connecting atoms Cl7        and C1         Dist= 5.08D+00.

 GradGradGradGradGradGradGradGradGradGradGradGradGradGradGradGradGradGrad
 Berny optimization.
 Initialization pass.
                           ----------------------------
                           !    Initial Parameters    !
                           ! (Angstroms and Degrees)  !
 --------------------------                            --------------------------
 ! Name  Definition              Value          Derivative Info.                !
 --------------------------------------------------------------------------------
 ! R1    R(1,2)                  2.1608         estimate D2E/DX2                !
 ! R2    R(1,6)                  2.064          estimate D2E/DX2                !
 ! R3    R(1,7)                  2.6857         estimate D2E/DX2                !
 ! R4    R(2,3)                  1.07           estimate D2E/DX2                !
 ! R5    R(2,4)                  1.07           estimate D2E/DX2                !
 ! R6    R(2,5)                  1.07           estimate D2E/DX2                !
 ! R7    R(3,6)                  2.1549         estimate D2E/DX2                !
 ! A1    A(2,1,6)               66.7489         estimate D2E/DX2                !
 ! A2    A(2,1,7)               91.2031         estimate D2E/DX2                !
 ! A3    A(6,1,7)              113.3816         estimate D2E/DX2                !
 ! A4    A(1,2,3)              109.4712         estimate D2E/DX2                !
 ! A5    A(1,2,4)              109.4712         estimate D2E/DX2                !
 ! A6    A(1,2,5)              109.4712         estimate D2E/DX2                !
 ! A7    A(3,2,4)              109.4712         estimate D2E/DX2                !
 ! A8    A(3,2,5)              109.4713         estimate D2E/DX2                !
 ! A9    A(4,2,5)              109.4712         estimate D2E/DX2                !
 ! A10   A(2,3,6)               85.267          estimate D2E/DX2                !
 ! A11   A(1,6,3)               79.9748         estimate D2E/DX2                !
 ! D1    D(6,1,2,3)             41.4145         estimate D2E/DX2                !
 ! D2    D(6,1,2,4)            -78.5855         estimate D2E/DX2                !
 ! D3    D(6,1,2,5)            161.4146         estimate D2E/DX2                !
 ! D4    D(7,1,2,3)            -73.61           estimate D2E/DX2                !
 ! D5    D(7,1,2,4)            166.39           estimate D2E/DX2                !
 ! D6    D(7,1,2,5)             46.3901         estimate D2E/DX2                !
 ! D7    D(2,1,6,3)            -18.3292         estimate D2E/DX2                !
 ! D8    D(7,1,6,3)             62.4134         estimate D2E/DX2                !
 ! D9    D(1,2,3,6)            -35.742          estimate D2E/DX2                !
 ! D10   D(4,2,3,6)             84.258          estimate D2E/DX2                !
 ! D11   D(5,2,3,6)           -155.742          estimate D2E/DX2                !
 ! D12   D(2,3,6,1)             35.8375         estimate D2E/DX2                !
 --------------------------------------------------------------------------------
 Trust Radius=3.00D-01 FncErr=1.00D-07 GrdErr=1.00D-06 EigMax=2.50D+02 EigMin=1.00D-04
 Number of steps in this run=     40 maximum allowed number of steps=    100.
 GradGradGradGradGradGradGradGradGradGradGradGradGradGradGradGradGradGrad

                          Input orientation:                          
 ---------------------------------------------------------------------
 Center     Atomic      Atomic             Coordinates (Angstroms)
 Number     Number       Type             X           Y           Z
 ---------------------------------------------------------------------
      1          6           0        0.000000    0.000000    0.000000
      2          6           0        0.000000    0.000000    2.160810
      3          1           0        1.008806    0.000000    2.517477
      4          1           0       -0.504402   -0.873652    2.517477
      5          1           0       -0.504404    0.873650    2.517477
      6          8           0        1.422198   -1.254475    0.814805
      7         17           0        0.757664    2.575985   -0.056390
 ---------------------------------------------------------------------
                    Distance matrix (angstroms):
                    1          2          3          4          5
     1  C    0.000000
     2  C    2.160810   0.000000
     3  H    2.712080   1.070000   0.000000
     4  H    2.712080   1.070000   1.747302   0.000000
     5  H    2.712080   1.070000   1.747304   1.747302   0.000000
     6  O    2.064040   2.325529   2.154923   2.599212   3.337635
     7  Cl   2.685690   3.482201   3.650145   4.485263   3.333998
                    6          7
     6  O    0.000000
     7  Cl   3.984094   0.000000
 Stoichiometry    C2H3ClO
 Framework group  C1[X(C2H3ClO)]
 Deg. of freedom    15
 Full point group                 C1      NOp   1
 Largest Abelian subgroup         C1      NOp   1
 Largest concise Abelian subgroup C1      NOp   1
                         Standard orientation:                         
 ---------------------------------------------------------------------
 Center     Atomic      Atomic             Coordinates (Angstroms)
 Number     Number       Type             X           Y           Z
 ---------------------------------------------------------------------
      1          6           0        0.529477   -0.515316    0.979313
      2          6           0        1.376122    1.209492   -0.009286
      3          1           0        1.501592    0.997874   -1.050619
      4          1           0        2.326711    1.438714    0.425153
      5          1           0        0.719309    2.045987    0.108070
      6          8           0        1.982637   -1.000612   -0.403826
      7         17           0       -1.873077   -0.037808   -0.121892
 ---------------------------------------------------------------------
 Rotational constants (GHZ):           8.4864033           2.1453798           1.9198074
 Standard basis: 6-31G(d) (6D, 7F)
 There are    70 symmetry adapted cartesian basis functions of A   symmetry.
 There are    70 symmetry adapted basis functions of A   symmetry.
    70 basis functions,   148 primitive gaussians,    70 cartesian basis functions
    20 alpha electrons       20 beta electrons
       nuclear repulsion energy       111.0599658197 Hartrees.
 NAtoms=    7 NActive=    7 NUniq=    7 SFac= 1.00D+00 NAtFMM=   60 NAOKFM=F Big=F
 Integral buffers will be    131072 words long.
 Raffenetti 2 integral format.
 Two-electron integral symmetry is turned on.
 One-electron integrals computed using PRISM.
 NBasis=    70 RedAO= T EigKep=  1.77D-02  NBF=    70
 NBsUse=    70 1.00D-06 EigRej= -1.00D+00 NBFU=    70
 ExpMin= 1.43D-01 ExpMax= 2.52D+04 ExpMxC= 3.78D+03 IAcc=3 IRadAn=         5 AccDes= 0.00D+00
 Harris functional with IExCor=  402 and IRadAn=       5 diagonalized for initial guess.
 HarFok:  IExCor=  402 AccDes= 0.00D+00 IRadAn=         5 IDoV= 1 UseB2=F ITyADJ=14
 ICtDFT=  3500011 ScaDFX=  1.000000  1.000000  1.000000  1.000000
 FoFCou: FMM=F IPFlag=           0 FMFlag=      100000 FMFlg1=           0
         NFxFlg=           0 DoJE=T BraDBF=F KetDBF=T FulRan=T
         wScrn=  0.000000 ICntrl=       500 IOpCl=  0 I1Cent=   200000004 NGrid=           0
         NMat0=    1 NMatS0=      1 NMatT0=    0 NMatD0=    1 NMtDS0=    0 NMtDT0=    0
 Petite list used in FoFCou.
 Keep R1 ints in memory in canonical form, NReq=4876532.
 Requested convergence on RMS density matrix=1.00D-08 within 128 cycles.
 Requested convergence on MAX density matrix=1.00D-06.
 Requested convergence on             energy=1.00D-06.
 No special actions if energy rises.
 Integral accuracy reduced to 1.0D-05 until final iterations.
 EnCoef did     2 forward-backward iterations
 EnCoef did     4 forward-backward iterations
 EnCoef did     1 forward-backward iterations
 EnCoef did     7 forward-backward iterations
 EnCoef did     2 forward-backward iterations
 Initial convergence to 1.0D-05 achieved.  Increase integral accuracy.
 SCF Done:  E(RB3LYP) =  -612.986490290     A.U. after   27 cycles
            NFock= 27  Conv=0.33D-08     -V/T= 2.0057

 **********************************************************************

            Population analysis using the SCF Density.

 **********************************************************************

 Orbital symmetries:
       Occupied  (A) (A) (A) (A) (A) (A) (A) (A) (A) (A) (A) (A)
                 (A) (A) (A) (A) (A) (A) (A) (A)
       Virtual   (A) (A) (A) (A) (A) (A) (A) (A) (A) (A) (A) (A)
                 (A) (A) (A) (A) (A) (A) (A) (A) (A) (A) (A) (A)
                 (A) (A) (A) (A) (A) (A) (A) (A) (A) (A) (A) (A)
                 (A) (A) (A) (A) (A) (A) (A) (A) (A) (A) (A) (A)
                 (A) (A)
 The electronic state is 1-A.
 Alpha  occ. eigenvalues -- -101.52717 -19.26550 -10.43911 -10.29305  -9.43847
 Alpha  occ. eigenvalues --   -7.20048  -7.19544  -7.19301  -0.93239  -0.76420
 Alpha  occ. eigenvalues --   -0.75504  -0.61412  -0.48079  -0.47626  -0.36744
 Alpha  occ. eigenvalues --   -0.35434  -0.33800  -0.30365  -0.28924  -0.28762
 Alpha virt. eigenvalues --   -0.23920  -0.16868  -0.12682  -0.08287   0.09471
 Alpha virt. eigenvalues --    0.13553   0.13701   0.36849   0.41965   0.44247
 Alpha virt. eigenvalues --    0.45935   0.50194   0.52115   0.55621   0.59068
 Alpha virt. eigenvalues --    0.59684   0.61528   0.72804   0.81841   0.82950
 Alpha virt. eigenvalues --    0.87172   0.88894   0.89629   0.90361   0.90708
 Alpha virt. eigenvalues --    0.91071   0.91256   0.96510   0.98410   1.12888
 Alpha virt. eigenvalues --    1.15923   1.53166   1.55290   1.57381   1.61318
 Alpha virt. eigenvalues --    1.64212   1.65809   1.66967   1.77980   1.79733
 Alpha virt. eigenvalues --    1.83581   1.96170   2.05866   2.16910   2.22903
 Alpha virt. eigenvalues --    2.27085   3.41301   3.86173   4.12242   4.24957
          Condensed to atoms (all electrons):
               1          2          3          4          5          6
     1  C    5.389455   0.121345  -0.007864  -0.007275  -0.001806   0.123430
     2  C    0.121345   5.220611   0.356823   0.360561   0.364714   0.050617
     3  H   -0.007864   0.356823   0.447607  -0.024733  -0.026972  -0.000649
     4  H   -0.007275   0.360561  -0.024733   0.484520  -0.034910  -0.006728
     5  H   -0.001806   0.364714  -0.026972  -0.034910   0.446922  -0.000003
     6  O    0.123430   0.050617  -0.000649  -0.006728  -0.000003   8.063579
     7  Cl   0.104388   0.002932  -0.000601   0.000602  -0.003458  -0.001722
               7
     1  C    0.104388
     2  C    0.002932
     3  H   -0.000601
     4  H    0.000602
     5  H   -0.003458
     6  O   -0.001722
     7  Cl  17.209928
 Mulliken charges:
               1
     1  C    0.278329
     2  C   -0.477603
     3  H    0.256388
     4  H    0.227964
     5  H    0.255514
     6  O   -0.228523
     7  Cl  -0.312069
 Sum of Mulliken charges =  -0.00000
 Mulliken charges with hydrogens summed into heavy atoms:
               1
     1  C    0.278329
     2  C    0.262263
     6  O   -0.228523
     7  Cl  -0.312069
 Electronic spatial extent (au):  <R**2>=            592.8896
 Charge=             -0.0000 electrons
 Dipole moment (field-independent basis, Debye):
    X=              3.3714    Y=              2.5870    Z=              0.9208  Tot=              4.3482
 Quadrupole moment (field-independent basis, Debye-Ang):
   XX=            -35.1839   YY=            -27.3285   ZZ=            -30.8686
   XY=              3.9412   XZ=              0.6589   YZ=             -1.0555
 Traceless Quadrupole moment (field-independent basis, Debye-Ang):
   XX=             -4.0569   YY=              3.7985   ZZ=              0.2584
   XY=              3.9412   XZ=              0.6589   YZ=             -1.0555
 Octapole moment (field-independent basis, Debye-Ang**2):
  XXX=              7.5762  YYY=              4.9521  ZZZ=             -4.3745  XYY=              5.9465
  XXY=              7.8675  XXZ=             -1.4209  XZZ=              2.4241  YZZ=              0.2388
  YYZ=             -0.9944  XYZ=             -0.3264
 Hexadecapole moment (field-independent basis, Debye-Ang**3):
 XXXX=           -537.9461 YYYY=           -125.2262 ZZZZ=            -74.5216 XXXY=             10.1462
 XXXZ=              1.6734 YYYX=             -0.6820 YYYZ=              3.2366 ZZZX=             -4.4125
 ZZZY=              0.7847 XXYY=           -105.3536 XXZZ=           -100.8466 YYZZ=            -36.7301
 XXYZ=              0.8477 YYXZ=             -1.0039 ZZXY=             -0.4334
 N-N= 1.110599658197D+02 E-N=-1.672752244636D+03  KE= 6.094855628676D+02
 Calling FoFJK, ICntrl=      2127 FMM=F ISym2X=0 I1Cent= 0 IOpClX= 0 NMat=1 NMatS=1 NMatT=0.
 ***** Axes restored to original set *****
 -------------------------------------------------------------------
 Center     Atomic                   Forces (Hartrees/Bohr)
 Number     Number              X              Y              Z
 -------------------------------------------------------------------
      1        6           0.068202402   -0.014823725    0.062834445
      2        6           0.020234482   -0.026532728   -0.002958049
      3        1           0.013758661    0.001491114    0.003099977
      4        1          -0.006773300   -0.015691096   -0.009667064
      5        1          -0.008593525    0.024161640   -0.024018643
      6        8          -0.077253807    0.074713270   -0.031083721
      7       17          -0.009574912   -0.043318474    0.001793055
 -------------------------------------------------------------------
 Cartesian Forces:  Max     0.077253807 RMS     0.035355781

 GradGradGradGradGradGradGradGradGradGradGradGradGradGradGradGradGradGrad
 Berny optimization.
 FormGI is forming the generalized inverse of G from B-inverse, IUseBI=4.
 Internal  Forces:  Max     0.094114130 RMS     0.022958949
 Search for a local minimum.
 Step number   1 out of a maximum of   40
 All quantities printed in internal units (Hartrees-Bohrs-Radians)
 Mixed Optimization -- RFO/linear search
 Second derivative matrix not updated -- first step.
 ITU=  0
     Eigenvalues ---    0.00751   0.03799   0.03865   0.04981   0.05826
     Eigenvalues ---    0.07056   0.08089   0.08227   0.11125   0.11476
     Eigenvalues ---    0.16363   0.18964   0.35272   0.37230   0.37230
 RFO step:  Lambda=-9.18725426D-02 EMin= 7.50810895D-03
 Linear search not attempted -- first point.
 Maximum step size (   0.300) exceeded in Quadratic search.
    -- Step size scaled by   0.416
 Iteration  1 RMS(Cart)=  0.05069193 RMS(Int)=  0.00504300
 Iteration  2 RMS(Cart)=  0.00371392 RMS(Int)=  0.00036830
 Iteration  3 RMS(Cart)=  0.00000389 RMS(Int)=  0.00036827
 Iteration  4 RMS(Cart)=  0.00000000 RMS(Int)=  0.00036827
 Variable       Old X    -DE/DX   Delta X   Delta X   Delta X     New X
                                 (Linear)    (Quad)   (Total)
    R1        4.08334  -0.03109   0.00000  -0.08105  -0.08140   4.00194
    R2        3.90047  -0.09411   0.00000  -0.22834  -0.22807   3.67240
    R3        5.07522  -0.04429   0.00000  -0.14119  -0.14119   4.93403
    R4        2.02201   0.00460   0.00000   0.00162   0.00146   2.02346
    R5        2.02201   0.01278   0.00000   0.01146   0.01146   2.03347
    R6        2.02201   0.01577   0.00000   0.01414   0.01414   2.03615
    R7        4.07221  -0.01387   0.00000  -0.04700  -0.04681   4.02540
    A1        1.16499   0.00216   0.00000   0.01165   0.01145   1.17643
    A2        1.59179  -0.00150   0.00000  -0.00229  -0.00213   1.58966
    A3        1.97888  -0.00174   0.00000  -0.00813  -0.00816   1.97072
    A4        1.91063   0.00729   0.00000   0.00160   0.00148   1.91211
    A5        1.91063  -0.01598   0.00000  -0.02391  -0.02428   1.88635
    A6        1.91063  -0.02482   0.00000  -0.05293  -0.05291   1.85773
    A7        1.91063   0.01039   0.00000   0.02310   0.02294   1.93357
    A8        1.91063   0.00780   0.00000   0.02095   0.02059   1.93123
    A9        1.91063   0.01531   0.00000   0.03118   0.02999   1.94062
   A10        1.48819  -0.02637   0.00000  -0.04599  -0.04603   1.44216
   A11        1.39582   0.01738   0.00000   0.03329   0.03383   1.42965
    D1        0.72282   0.00621   0.00000   0.01041   0.01020   0.73302
    D2       -1.37158  -0.00120   0.00000  -0.00423  -0.00386  -1.37543
    D3        2.81722   0.00503   0.00000   0.00464   0.00448   2.82169
    D4       -1.28474   0.00781   0.00000   0.02038   0.02018  -1.26456
    D5        2.90405   0.00040   0.00000   0.00574   0.00612   2.91018
    D6        0.80966   0.00663   0.00000   0.01461   0.01446   0.82412
    D7       -0.31991  -0.00234   0.00000  -0.00586  -0.00596  -0.32586
    D8        1.08932  -0.00217   0.00000   0.00142   0.00127   1.09059
    D9       -0.62381   0.00761   0.00000   0.01899   0.01940  -0.60441
   D10        1.47058  -0.00113   0.00000   0.00483   0.00457   1.47515
   D11       -2.71821   0.02876   0.00000   0.07000   0.07081  -2.64740
   D12        0.62548   0.00021   0.00000   0.00423   0.00485   0.63033
         Item               Value     Threshold  Converged?
 Maximum Force            0.094114     0.000450     NO 
 RMS     Force            0.022959     0.000300     NO 
 Maximum Displacement     0.154348     0.001800     NO 
 RMS     Displacement     0.053183     0.001200     NO 
 Predicted change in Energy=-3.469256D-02
 GradGradGradGradGradGradGradGradGradGradGradGradGradGradGradGradGradGrad

                          Input orientation:                          
 ---------------------------------------------------------------------
 Center     Atomic      Atomic             Coordinates (Angstroms)
 Number     Number       Type             X           Y           Z
 ---------------------------------------------------------------------
      1          6           0        0.015014   -0.007571    0.044409
      2          6           0        0.015709   -0.001042    2.162135
      3          1           0        1.024685    0.017175    2.520168
      4          1           0       -0.493072   -0.887376    2.498984
      5          1           0       -0.510936    0.889006    2.464504
      6          8           0        1.368789   -1.182991    0.794267
      7         17           0        0.759670    2.494307   -0.012811
 ---------------------------------------------------------------------
                    Distance matrix (angstroms):
                    1          2          3          4          5
     1  C    0.000000
     2  C    2.117736   0.000000
     3  H    2.673842   1.070771   0.000000
     4  H    2.656529   1.076064   1.766988   0.000000
     5  H    2.633883   1.077483   1.766725   1.776807   0.000000
     6  O    1.943349   2.258072   2.130150   2.541647   3.258256
     7  Cl   2.610974   3.392733   3.552801   4.394799   3.213802
                    6          7
     6  O    0.000000
     7  Cl   3.813781   0.000000
 Stoichiometry    C2H3ClO
 Framework group  C1[X(C2H3ClO)]
 Deg. of freedom    15
 Full point group                 C1      NOp   1
 Largest Abelian subgroup         C1      NOp   1
 Largest concise Abelian subgroup C1      NOp   1
                         Standard orientation:                         
 ---------------------------------------------------------------------
 Center     Atomic      Atomic             Coordinates (Angstroms)
 Number     Number       Type             X           Y           Z
 ---------------------------------------------------------------------
      1          6           0        0.530276   -0.521441    0.934700
      2          6           0        1.359966    1.180798   -0.013353
      3          1           0        1.458411    0.994063   -1.063110
      4          1           0        2.320139    1.376005    0.431477
      5          1           0        0.675426    1.993437    0.165508
      6          8           0        1.870752   -0.985636   -0.393552
      7         17           0       -1.809496   -0.025562   -0.112561
 ---------------------------------------------------------------------
 Rotational constants (GHZ):           8.9071246           2.3120946           2.0559916
 Standard basis: 6-31G(d) (6D, 7F)
 There are    70 symmetry adapted cartesian basis functions of A   symmetry.
 There are    70 symmetry adapted basis functions of A   symmetry.
    70 basis functions,   148 primitive gaussians,    70 cartesian basis functions
    20 alpha electrons       20 beta electrons
       nuclear repulsion energy       114.4455635517 Hartrees.
 NAtoms=    7 NActive=    7 NUniq=    7 SFac= 1.00D+00 NAtFMM=   60 NAOKFM=F Big=F
 Integral buffers will be    131072 words long.
 Raffenetti 2 integral format.
 Two-electron integral symmetry is turned on.
 One-electron integrals computed using PRISM.
 NBasis=    70 RedAO= T EigKep=  1.74D-02  NBF=    70
 NBsUse=    70 1.00D-06 EigRej= -1.00D+00 NBFU=    70
 Initial guess from the checkpoint file:  "/wheeler/scratch/mfricke/Gau-21985.chk"
 B after Tr=    -0.000000    0.000000    0.000000
         Rot=    0.999979   -0.004047   -0.002338    0.004463 Ang=  -0.74 deg.
 ExpMin= 1.43D-01 ExpMax= 2.52D+04 ExpMxC= 3.78D+03 IAcc=3 IRadAn=         5 AccDes= 0.00D+00
 Harris functional with IExCor=  402 and IRadAn=       5 diagonalized for initial guess.
 HarFok:  IExCor=  402 AccDes= 0.00D+00 IRadAn=         5 IDoV= 1 UseB2=F ITyADJ=14
 ICtDFT=  3500011 ScaDFX=  1.000000  1.000000  1.000000  1.000000
 FoFCou: FMM=F IPFlag=           0 FMFlag=      100000 FMFlg1=           0
         NFxFlg=           0 DoJE=T BraDBF=F KetDBF=T FulRan=T
         wScrn=  0.000000 ICntrl=       500 IOpCl=  0 I1Cent=   200000004 NGrid=           0
         NMat0=    1 NMatS0=      1 NMatT0=    0 NMatD0=    1 NMtDS0=    0 NMtDT0=    0
 Petite list used in FoFCou.
 Keep R1 ints in memory in canonical form, NReq=4876532.
 Requested convergence on RMS density matrix=1.00D-08 within 128 cycles.
 Requested convergence on MAX density matrix=1.00D-06.
 Requested convergence on             energy=1.00D-06.
 No special actions if energy rises.
 Integral accuracy reduced to 1.0D-05 until final iterations.
 Initial convergence to 1.0D-05 achieved.  Increase integral accuracy.
 SCF Done:  E(RB3LYP) =  -613.026312280     A.U. after   22 cycles
            NFock= 22  Conv=0.31D-08     -V/T= 2.0058
 Calling FoFJK, ICntrl=      2127 FMM=F ISym2X=0 I1Cent= 0 IOpClX= 0 NMat=1 NMatS=1 NMatT=0.
 ***** Axes restored to original set *****
 -------------------------------------------------------------------
 Center     Atomic                   Forces (Hartrees/Bohr)
 Number     Number              X              Y              Z
 -------------------------------------------------------------------
      1        6           0.080427596   -0.024301891    0.062851681
      2        6           0.016847348   -0.026972617   -0.000089211
      3        1           0.011238203    0.002075909    0.005477988
      4        1          -0.003951008   -0.009847639   -0.008291800
      5        1          -0.005156553    0.016709459   -0.024671930
      6        8          -0.090218691    0.086158129   -0.036532218
      7       17          -0.009186895   -0.043821350    0.001255489
 -------------------------------------------------------------------
 Cartesian Forces:  Max     0.090218691 RMS     0.039146159

 GradGradGradGradGradGradGradGradGradGradGradGradGradGradGradGradGradGrad
 Berny optimization.
 Using GEDIIS/GDIIS optimizer.
 FormGI is forming the generalized inverse of G from B-inverse, IUseBI=4.
 Internal  Forces:  Max     0.109656929 RMS     0.024927384
 Search for a local minimum.
 Step number   2 out of a maximum of   40
 All quantities printed in internal units (Hartrees-Bohrs-Radians)
 Mixed Optimization -- RFO/linear search
 Update second derivatives using D2CorX and points    1    2
 DE= -3.98D-02 DEPred=-3.47D-02 R= 1.15D+00
 TightC=F SS=  1.41D+00  RLast= 3.10D-01 DXNew= 5.0454D-01 9.2988D-01
 Trust test= 1.15D+00 RLast= 3.10D-01 DXMaxT set to 5.05D-01
 ITU=  1  0
 Use linear search instead of GDIIS.
     Eigenvalues ---   -0.07142   0.00729   0.02851   0.04022   0.05035
     Eigenvalues ---    0.05928   0.06901   0.07614   0.09613   0.11303
     Eigenvalues ---    0.16122   0.18414   0.34328   0.35534   0.37230
 RFO step:  Lambda=-1.67960320D-01 EMin=-7.14179923D-02
 Skip linear search -- no minimum in search direction.
 Maximum step size (   0.505) exceeded in Quadratic search.
    -- Step size scaled by   0.497
 Iteration  1 RMS(Cart)=  0.05469909 RMS(Int)=  0.04405140
 Iteration  2 RMS(Cart)=  0.02878112 RMS(Int)=  0.00537950
 Iteration  3 RMS(Cart)=  0.00383511 RMS(Int)=  0.00139698
 Iteration  4 RMS(Cart)=  0.00000796 RMS(Int)=  0.00139696
 Iteration  5 RMS(Cart)=  0.00000001 RMS(Int)=  0.00139696
 Variable       Old X    -DE/DX   Delta X   Delta X   Delta X     New X
                                 (Linear)    (Quad)   (Total)
    R1        4.00194  -0.02697   0.00000  -0.05361  -0.05607   3.94588
    R2        3.67240  -0.10966   0.00000  -0.45307  -0.45224   3.22015
    R3        4.93403  -0.04464   0.00000  -0.14656  -0.14656   4.78746
    R4        2.02346   0.00209   0.00000  -0.00886  -0.00974   2.01372
    R5        2.03347   0.00738   0.00000  -0.00394  -0.00394   2.02953
    R6        2.03615   0.00940   0.00000  -0.00336  -0.00336   2.03279
    R7        4.02540  -0.01314   0.00000  -0.03671  -0.03450   3.99090
    A1        1.17643   0.00133   0.00000   0.00984   0.00683   1.18327
    A2        1.58966  -0.00013   0.00000   0.00600   0.00696   1.59663
    A3        1.97072  -0.00166   0.00000  -0.00812  -0.00885   1.96187
    A4        1.91211   0.00754   0.00000   0.01095   0.01024   1.92235
    A5        1.88635  -0.01491   0.00000  -0.02845  -0.02906   1.85729
    A6        1.85773  -0.02201   0.00000  -0.04700  -0.04644   1.81129
    A7        1.93357   0.00933   0.00000   0.02247   0.02211   1.95569
    A8        1.93123   0.00601   0.00000   0.01421   0.01473   1.94596
    A9        1.94062   0.01232   0.00000   0.02397   0.02275   1.96337
   A10        1.44216  -0.02965   0.00000  -0.10163  -0.10023   1.34193
   A11        1.42965   0.02221   0.00000   0.09149   0.09447   1.52412
    D1        0.73302   0.00639   0.00000   0.01834   0.01696   0.74998
    D2       -1.37543  -0.00034   0.00000   0.00186   0.00194  -1.37349
    D3        2.82169   0.00494   0.00000   0.01409   0.01325   2.83495
    D4       -1.26456   0.00838   0.00000   0.03160   0.03080  -1.23375
    D5        2.91018   0.00165   0.00000   0.01512   0.01579   2.92596
    D6        0.82412   0.00693   0.00000   0.02735   0.02710   0.85122
    D7       -0.32586  -0.00188   0.00000  -0.00278  -0.00329  -0.32916
    D8        1.09059  -0.00056   0.00000   0.01317   0.01249   1.10308
    D9       -0.60441   0.01043   0.00000   0.05293   0.05424  -0.55017
   D10        1.47515   0.00255   0.00000   0.03860   0.03855   1.51371
   D11       -2.64740   0.02921   0.00000   0.09531   0.09617  -2.55123
   D12        0.63033   0.00159   0.00000   0.01200   0.01584   0.64617
         Item               Value     Threshold  Converged?
 Maximum Force            0.109657     0.000450     NO 
 RMS     Force            0.024927     0.000300     NO 
 Maximum Displacement     0.263468     0.001800     NO 
 RMS     Displacement     0.080966     0.001200     NO 
 Predicted change in Energy=-7.767373D-02
 GradGradGradGradGradGradGradGradGradGradGradGradGradGradGradGradGradGrad

                          Input orientation:                          
 ---------------------------------------------------------------------
 Center     Atomic      Atomic             Coordinates (Angstroms)
 Number     Number       Type             X           Y           Z
 ---------------------------------------------------------------------
      1          6           0        0.058059   -0.029905    0.087151
      2          6           0        0.037152   -0.010071    2.175019
      3          1           0        1.032762    0.040519    2.551498
      4          1           0       -0.464884   -0.908474    2.482047
      5          1           0       -0.521385    0.876781    2.417236
      6          8           0        1.255198   -1.043569    0.752786
      7         17           0        0.782957    2.396229    0.005918
 ---------------------------------------------------------------------
                    Distance matrix (angstroms):
                    1          2          3          4          5
     1  C    0.000000
     2  C    2.088067   0.000000
     3  H    2.651040   1.065615   0.000000
     4  H    2.604013   1.073980   1.774360   0.000000
     5  H    2.566541   1.075704   1.769953   1.787324   0.000000
     6  O    1.704032   2.138808   2.111893   2.442801   3.100707
     7  Cl   2.533417   3.324380   3.477319   4.313859   3.134404
                    6          7
     6  O    0.000000
     7  Cl   3.551483   0.000000
 Stoichiometry    C2H3ClO
 Framework group  C1[X(C2H3ClO)]
 Deg. of freedom    15
 Full point group                 C1      NOp   1
 Largest Abelian subgroup         C1      NOp   1
 Largest concise Abelian subgroup C1      NOp   1
                         Standard orientation:                         
 ---------------------------------------------------------------------
 Center     Atomic      Atomic             Coordinates (Angstroms)
 Number     Number       Type             X           Y           Z
 ---------------------------------------------------------------------
      1          6           0        0.542410   -0.585042    0.837574
      2          6           0        1.397247    1.124841   -0.002413
      3          1           0        1.447131    1.027305   -1.062382
      4          1           0        2.370877    1.225794    0.439500
      5          1           0        0.728768    1.915395    0.289647
      6          8           0        1.665436   -0.961871   -0.387391
      7         17           0       -1.735777    0.016922   -0.092859
 ---------------------------------------------------------------------
 Rotational constants (GHZ):           9.6380629           2.5615811           2.2495534
 Standard basis: 6-31G(d) (6D, 7F)
 There are    70 symmetry adapted cartesian basis functions of A   symmetry.
 There are    70 symmetry adapted basis functions of A   symmetry.
    70 basis functions,   148 primitive gaussians,    70 cartesian basis functions
    20 alpha electrons       20 beta electrons
       nuclear repulsion energy       119.7921631554 Hartrees.
 NAtoms=    7 NActive=    7 NUniq=    7 SFac= 1.00D+00 NAtFMM=   60 NAOKFM=F Big=F
 Integral buffers will be    131072 words long.
 Raffenetti 2 integral format.
 Two-electron integral symmetry is turned on.
 One-electron integrals computed using PRISM.
 NBasis=    70 RedAO= T EigKep=  1.61D-02  NBF=    70
 NBsUse=    70 1.00D-06 EigRej= -1.00D+00 NBFU=    70
 Initial guess from the checkpoint file:  "/wheeler/scratch/mfricke/Gau-21985.chk"
 B after Tr=    -0.000000   -0.000000    0.000000
         Rot=    0.999672   -0.019178   -0.005809    0.015952 Ang=  -2.94 deg.
 ExpMin= 1.43D-01 ExpMax= 2.52D+04 ExpMxC= 3.78D+03 IAcc=3 IRadAn=         5 AccDes= 0.00D+00
 Harris functional with IExCor=  402 and IRadAn=       5 diagonalized for initial guess.
 HarFok:  IExCor=  402 AccDes= 0.00D+00 IRadAn=         5 IDoV= 1 UseB2=F ITyADJ=14
 ICtDFT=  3500011 ScaDFX=  1.000000  1.000000  1.000000  1.000000
 FoFCou: FMM=F IPFlag=           0 FMFlag=      100000 FMFlg1=           0
         NFxFlg=           0 DoJE=T BraDBF=F KetDBF=T FulRan=T
         wScrn=  0.000000 ICntrl=       500 IOpCl=  0 I1Cent=   200000004 NGrid=           0
         NMat0=    1 NMatS0=      1 NMatT0=    0 NMatD0=    1 NMtDS0=    0 NMtDT0=    0
 Petite list used in FoFCou.
 Keep R1 ints in memory in canonical form, NReq=4876532.
 Requested convergence on RMS density matrix=1.00D-08 within 128 cycles.
 Requested convergence on MAX density matrix=1.00D-06.
 Requested convergence on             energy=1.00D-06.
 No special actions if energy rises.
 Integral accuracy reduced to 1.0D-05 until final iterations.
 Initial convergence to 1.0D-05 achieved.  Increase integral accuracy.
 SCF Done:  E(RB3LYP) =  -613.103853782     A.U. after   20 cycles
            NFock= 20  Conv=0.41D-08     -V/T= 2.0057
 Calling FoFJK, ICntrl=      2127 FMM=F ISym2X=0 I1Cent= 0 IOpClX= 0 NMat=1 NMatS=1 NMatT=0.
 ***** Axes restored to original set *****
 -------------------------------------------------------------------
 Center     Atomic                   Forces (Hartrees/Bohr)
 Number     Number              X              Y              Z
 -------------------------------------------------------------------
      1        6           0.105808965   -0.048103422    0.069665262
      2        6           0.014738471   -0.027711993    0.003294617
      3        1           0.012937377    0.002916073    0.007836597
      4        1          -0.004020929   -0.009348355   -0.005448383
      5        1          -0.005500147    0.015657636   -0.024719370
      6        8          -0.116088937    0.107590720   -0.051806654
      7       17          -0.007874801   -0.041000658    0.001177931
 -------------------------------------------------------------------
 Cartesian Forces:  Max     0.116088937 RMS     0.048842088

 GradGradGradGradGradGradGradGradGradGradGradGradGradGradGradGradGradGrad
 Berny optimization.
 Using GEDIIS/GDIIS optimizer.
 FormGI is forming the generalized inverse of G from B-inverse, IUseBI=4.
 Internal  Forces:  Max     0.142108049 RMS     0.030102808
 Search for a local minimum.
 Step number   3 out of a maximum of   40
 All quantities printed in internal units (Hartrees-Bohrs-Radians)
 Mixed Optimization -- RFO/linear search
 Update second derivatives using D2CorX and points    2    3
 DE= -7.75D-02 DEPred=-7.77D-02 R= 9.98D-01
 TightC=F SS=  1.41D+00  RLast= 5.20D-01 DXNew= 8.4853D-01 1.5601D+00
 Trust test= 9.98D-01 RLast= 5.20D-01 DXMaxT set to 8.49D-01
 ITU=  1  1  0
 Use linear search instead of GDIIS.
     Eigenvalues ---   -0.07339   0.00675   0.02631   0.04048   0.05029
     Eigenvalues ---    0.05863   0.07390   0.07693   0.09726   0.11389
     Eigenvalues ---    0.16074   0.18535   0.34289   0.35459   0.37230
 RFO step:  Lambda=-1.99204362D-01 EMin=-7.33871940D-02
 Skip linear search -- no minimum in search direction.
 Maximum step size (   0.849) exceeded in Quadratic search.
    -- Step size scaled by   0.840
 Iteration  1 RMS(Cart)=  0.06839126 RMS(Int)=  0.10238762
 Iteration  2 RMS(Cart)=  0.03316272 RMS(Int)=  0.05774539
 Iteration  3 RMS(Cart)=  0.02958248 RMS(Int)=  0.01823828
 Iteration  4 RMS(Cart)=  0.01292126 RMS(Int)=  0.00511203
 Iteration  5 RMS(Cart)=  0.00012421 RMS(Int)=  0.00511069
 Iteration  6 RMS(Cart)=  0.00000074 RMS(Int)=  0.00511069
 Variable       Old X    -DE/DX   Delta X   Delta X   Delta X     New X
                                 (Linear)    (Quad)   (Total)
    R1        3.94588  -0.02359   0.00000  -0.06938  -0.08000   3.86588
    R2        3.22015  -0.14211   0.00000  -0.79000  -0.78569   2.43447
    R3        4.78746  -0.04156   0.00000  -0.16164  -0.16164   4.62582
    R4        2.01372   0.00275   0.00000  -0.00256  -0.00692   2.00680
    R5        2.02953   0.00814   0.00000   0.00946   0.00946   2.03899
    R6        2.03279   0.01020   0.00000   0.01308   0.01308   2.04587
    R7        3.99090  -0.00878   0.00000  -0.02074  -0.01087   3.98003
    A1        1.18327   0.00196   0.00000   0.01753   0.00748   1.19075
    A2        1.59663   0.00100   0.00000   0.00821   0.01148   1.60811
    A3        1.96187  -0.00149   0.00000  -0.00469  -0.00688   1.95499
    A4        1.92235   0.00377   0.00000   0.00068  -0.00312   1.91924
    A5        1.85729  -0.01457   0.00000  -0.05258  -0.05423   1.80306
    A6        1.81129  -0.01807   0.00000  -0.05529  -0.05207   1.75922
    A7        1.95569   0.00917   0.00000   0.03546   0.03398   1.98966
    A8        1.94596   0.00669   0.00000   0.02756   0.02921   1.97517
    A9        1.96337   0.00978   0.00000   0.03232   0.02929   1.99266
   A10        1.34193  -0.03309   0.00000  -0.16263  -0.15475   1.18718
   A11        1.52412   0.03060   0.00000   0.16757   0.17618   1.70031
    D1        0.74998   0.00537   0.00000   0.02253   0.01780   0.76778
    D2       -1.37349   0.00105   0.00000   0.01147   0.01118  -1.36231
    D3        2.83495   0.00494   0.00000   0.02421   0.02194   2.85688
    D4       -1.23375   0.00773   0.00000   0.03385   0.03121  -1.20254
    D5        2.92596   0.00341   0.00000   0.02279   0.02459   2.95055
    D6        0.85122   0.00730   0.00000   0.03553   0.03535   0.88656
    D7       -0.32916  -0.00222   0.00000  -0.00684  -0.00920  -0.33835
    D8        1.10308   0.00058   0.00000   0.01334   0.01091   1.11399
    D9       -0.55017   0.01696   0.00000   0.10483   0.11072  -0.43945
   D10        1.51371   0.00703   0.00000   0.06196   0.06191   1.57562
   D11       -2.55123   0.03289   0.00000   0.15595   0.15958  -2.39166
   D12        0.64617   0.00579   0.00000   0.03677   0.04879   0.69496
         Item               Value     Threshold  Converged?
 Maximum Force            0.142108     0.000450     NO 
 RMS     Force            0.030103     0.000300     NO 
 Maximum Displacement     0.423358     0.001800     NO 
 RMS     Displacement     0.130358     0.001200     NO 
 Predicted change in Energy=-1.672828D-01
 GradGradGradGradGradGradGradGradGradGradGradGradGradGradGradGradGradGrad

                          Input orientation:                          
 ---------------------------------------------------------------------
 Center     Atomic      Atomic             Coordinates (Angstroms)
 Number     Number       Type             X           Y           Z
 ---------------------------------------------------------------------
      1          6           0        0.143677   -0.081518    0.155582
      2          6           0        0.068466   -0.023113    2.199100
      3          1           0        1.048824    0.075011    2.595356
      4          1           0       -0.417996   -0.951224    2.456348
      5          1           0       -0.543736    0.856180    2.354446
      6          8           0        1.055162   -0.819538    0.688640
      7         17           0        0.825463    2.265711    0.022183
 ---------------------------------------------------------------------
                    Distance matrix (angstroms):
                    1          2          3          4          5
     1  C    0.000000
     2  C    2.045735   0.000000
     3  H    2.606969   1.061955   0.000000
     4  H    2.522972   1.078986   1.795562   0.000000
     5  H    2.487331   1.082627   1.790114   1.814636   0.000000
     6  O    1.288266   1.972144   2.106140   2.304849   2.852967
     7  Cl   2.447878   3.248188   3.386779   4.221376   3.049743
                    6          7
     6  O    0.000000
     7  Cl   3.164757   0.000000
 Stoichiometry    C2H3ClO
 Framework group  C1[X(C2H3ClO)]
 Deg. of freedom    15
 Full point group                 C1      NOp   1
 Largest Abelian subgroup         C1      NOp   1
 Largest concise Abelian subgroup C1      NOp   1
                         Standard orientation:                         
 ---------------------------------------------------------------------
 Center     Atomic      Atomic             Coordinates (Angstroms)
 Number     Number       Type             X           Y           Z
 ---------------------------------------------------------------------
      1          6           0        0.573676   -0.695831    0.647371
      2          6           0        1.468665    1.030298    0.011365
      3          1           0        1.442437    1.082933   -1.048960
      4          1           0        2.463668    0.960336    0.422807
      5          1           0        0.842070    1.771983    0.490286
      6          8           0        1.354504   -0.903975   -0.355930
      7         17           0       -1.637544    0.082926   -0.057007
 ---------------------------------------------------------------------
 Rotational constants (GHZ):          11.1338150           2.9668903           2.5481867
 Standard basis: 6-31G(d) (6D, 7F)
 There are    70 symmetry adapted cartesian basis functions of A   symmetry.
 There are    70 symmetry adapted basis functions of A   symmetry.
    70 basis functions,   148 primitive gaussians,    70 cartesian basis functions
    20 alpha electrons       20 beta electrons
       nuclear repulsion energy       129.8843203619 Hartrees.
 NAtoms=    7 NActive=    7 NUniq=    7 SFac= 1.00D+00 NAtFMM=   60 NAOKFM=F Big=F
 Integral buffers will be    131072 words long.
 Raffenetti 2 integral format.
 Two-electron integral symmetry is turned on.
 One-electron integrals computed using PRISM.
 NBasis=    70 RedAO= T EigKep=  8.41D-03  NBF=    70
 NBsUse=    70 1.00D-06 EigRej= -1.00D+00 NBFU=    70
 Initial guess from the checkpoint file:  "/wheeler/scratch/mfricke/Gau-21985.chk"
 B after Tr=     0.000000    0.000000   -0.000000
         Rot=    0.998955   -0.034931   -0.010862    0.027392 Ang=  -5.24 deg.
 ExpMin= 1.43D-01 ExpMax= 2.52D+04 ExpMxC= 3.78D+03 IAcc=3 IRadAn=         5 AccDes= 0.00D+00
 Harris functional with IExCor=  402 and IRadAn=       5 diagonalized for initial guess.
 HarFok:  IExCor=  402 AccDes= 0.00D+00 IRadAn=         5 IDoV= 1 UseB2=F ITyADJ=14
 ICtDFT=  3500011 ScaDFX=  1.000000  1.000000  1.000000  1.000000
 FoFCou: FMM=F IPFlag=           0 FMFlag=      100000 FMFlg1=           0
         NFxFlg=           0 DoJE=T BraDBF=F KetDBF=T FulRan=T
         wScrn=  0.000000 ICntrl=       500 IOpCl=  0 I1Cent=   200000004 NGrid=           0
         NMat0=    1 NMatS0=      1 NMatT0=    0 NMatD0=    1 NMtDS0=    0 NMtDT0=    0
 Petite list used in FoFCou.
 Keep R1 ints in memory in canonical form, NReq=4876532.
 Requested convergence on RMS density matrix=1.00D-08 within 128 cycles.
 Requested convergence on MAX density matrix=1.00D-06.
 Requested convergence on             energy=1.00D-06.
 No special actions if energy rises.
 Integral accuracy reduced to 1.0D-05 until final iterations.
 EnCoef did     2 forward-backward iterations
 Initial convergence to 1.0D-05 achieved.  Increase integral accuracy.
 SCF Done:  E(RB3LYP) =  -613.247138515     A.U. after   18 cycles
            NFock= 18  Conv=0.67D-08     -V/T= 2.0052
 Calling FoFJK, ICntrl=      2127 FMM=F ISym2X=0 I1Cent= 0 IOpClX= 0 NMat=1 NMatS=1 NMatT=0.
 ***** Axes restored to original set *****
 -------------------------------------------------------------------
 Center     Atomic                   Forces (Hartrees/Bohr)
 Number     Number              X              Y              Z
 -------------------------------------------------------------------
      1        6           0.081458781   -0.038234117    0.062443500
      2        6          -0.010595741   -0.013083495    0.012066811
      3        1           0.015037151    0.004069892    0.005817572
      4        1          -0.001941630   -0.004380938   -0.002936849
      5        1          -0.001447157    0.007776541   -0.019649876
      6        8          -0.077574513    0.069831396   -0.058566592
      7       17          -0.004936891   -0.025979278    0.000825433
 -------------------------------------------------------------------
 Cartesian Forces:  Max     0.081458781 RMS     0.036649353

 GradGradGradGradGradGradGradGradGradGradGradGradGradGradGradGradGradGrad
 Berny optimization.
 Using GEDIIS/GDIIS optimizer.
 FormGI is forming the generalized inverse of G from B-inverse, IUseBI=4.
 Internal  Forces:  Max     0.103492053 RMS     0.021643765
 Search for a local minimum.
 Step number   4 out of a maximum of   40
 All quantities printed in internal units (Hartrees-Bohrs-Radians)
 Mixed Optimization -- RFO/linear search
 Update second derivatives using D2CorX and points    3    4
 DE= -1.43D-01 DEPred=-1.67D-01 R= 8.57D-01
 TightC=F SS=  1.41D+00  RLast= 8.73D-01 DXNew= 1.4270D+00 2.6186D+00
 Trust test= 8.57D-01 RLast= 8.73D-01 DXMaxT set to 1.43D+00
 ITU=  1  1  1  0
 Use linear search instead of GDIIS.
     Eigenvalues ---    0.00578   0.02396   0.03989   0.04966   0.05666
     Eigenvalues ---    0.05902   0.07660   0.08582   0.09944   0.11399
     Eigenvalues ---    0.16144   0.21373   0.33995   0.35570   0.37231
 RFO step:  Lambda=-1.21372550D-02 EMin= 5.77931264D-03
 Quartic linear search produced a step of  0.43242.
 Iteration  1 RMS(Cart)=  0.07297109 RMS(Int)=  0.05284241
 Iteration  2 RMS(Cart)=  0.02984891 RMS(Int)=  0.01298608
 Iteration  3 RMS(Cart)=  0.00950895 RMS(Int)=  0.00233937
 Iteration  4 RMS(Cart)=  0.00003155 RMS(Int)=  0.00233894
 Iteration  5 RMS(Cart)=  0.00000003 RMS(Int)=  0.00233894
 Variable       Old X    -DE/DX   Delta X   Delta X   Delta X     New X
                                 (Linear)    (Quad)   (Total)
    R1        3.86588  -0.02016  -0.03459  -0.04130  -0.07539   3.79048
    R2        2.43447  -0.10349  -0.33975  -0.14616  -0.48642   1.94805
    R3        4.62582  -0.02633  -0.06990  -0.07462  -0.14452   4.48130
    R4        2.00680   0.00791  -0.00299   0.04047   0.03639   2.04319
    R5        2.03899   0.00394   0.00409   0.00929   0.01338   2.05237
    R6        2.04587   0.00431   0.00566   0.00888   0.01454   2.06041
    R7        3.98003   0.00956  -0.00470   0.19163   0.18725   4.16728
    A1        1.19075   0.01279   0.00324   0.13645   0.14034   1.33109
    A2        1.60811  -0.00007   0.00496  -0.00072   0.00614   1.61424
    A3        1.95499  -0.00078  -0.00297   0.00399  -0.00358   1.95141
    A4        1.91924  -0.01025  -0.00135  -0.03017  -0.03311   1.88613
    A5        1.80306  -0.00754  -0.02345  -0.02441  -0.04586   1.75719
    A6        1.75922  -0.00869  -0.02251  -0.04915  -0.07281   1.68641
    A7        1.98966   0.00720   0.01469   0.01917   0.02990   2.01957
    A8        1.97517   0.00901   0.01263   0.03315   0.04365   2.01882
    A9        1.99266   0.00507   0.01266   0.03154   0.03854   2.03120
   A10        1.18718  -0.01167  -0.06692   0.03838  -0.03257   1.15461
   A11        1.70031   0.01290   0.07619  -0.06925   0.00548   1.70578
    D1        0.76778  -0.00021   0.00770  -0.08658  -0.08048   0.68730
    D2       -1.36231   0.00085   0.00483  -0.07981  -0.07499  -1.43730
    D3        2.85688   0.00117   0.00949  -0.08736  -0.07912   2.77777
    D4       -1.20254   0.00225   0.01350  -0.07373  -0.06230  -1.26484
    D5        2.95055   0.00330   0.01063  -0.06695  -0.05680   2.89375
    D6        0.88656   0.00363   0.01528  -0.07450  -0.06093   0.82563
    D7       -0.33835  -0.00237  -0.00398   0.04072   0.03529  -0.30306
    D8        1.11399   0.00371   0.00472   0.10013   0.10409   1.21808
    D9       -0.43945   0.01660   0.04788   0.07468   0.11900  -0.32045
   D10        1.57562   0.00473   0.02677   0.03571   0.05745   1.63306
   D11       -2.39166   0.02839   0.06900   0.13452   0.20472  -2.18694
   D12        0.69496   0.00616   0.02110  -0.08968  -0.06633   0.62862
         Item               Value     Threshold  Converged?
 Maximum Force            0.103492     0.000450     NO 
 RMS     Force            0.021644     0.000300     NO 
 Maximum Displacement     0.231972     0.001800     NO 
 RMS     Displacement     0.091401     0.001200     NO 
 Predicted change in Energy=-6.107671D-02
 GradGradGradGradGradGradGradGradGradGradGradGradGradGradGradGradGradGrad

                          Input orientation:                          
 ---------------------------------------------------------------------
 Center     Atomic      Atomic             Coordinates (Angstroms)
 Number     Number       Type             X           Y           Z
 ---------------------------------------------------------------------
      1          6           0        0.212460   -0.124596    0.239287
      2          6           0        0.071523   -0.021362    2.237503
      3          1           0        1.071534    0.060245    2.640415
      4          1           0       -0.448066   -0.950890    2.450912
      5          1           0       -0.528268    0.888412    2.274448
      6          8           0        1.003470   -0.696784    0.570315
      7         17           0        0.797207    2.166482    0.058775
 ---------------------------------------------------------------------
                    Distance matrix (angstroms):
                    1          2          3          4          5
     1  C    0.000000
     2  C    2.005838   0.000000
     3  H    2.556871   1.081212   0.000000
     4  H    2.451600   1.086066   1.835072   0.000000
     5  H    2.390971   1.090322   1.838248   1.849487   0.000000
     6  O    1.030862   2.025891   2.205230   2.389178   2.786241
     7  Cl   2.371403   3.171771   3.343105   4.122018   2.880895
                    6          7
     6  O    0.000000
     7  Cl   2.915906   0.000000
 Stoichiometry    C2H3ClO
 Framework group  C1[X(C2H3ClO)]
 Deg. of freedom    15
 Full point group                 C1      NOp   1
 Largest Abelian subgroup         C1      NOp   1
 Largest concise Abelian subgroup C1      NOp   1
                         Standard orientation:                         
 ---------------------------------------------------------------------
 Center     Atomic      Atomic             Coordinates (Angstroms)
 Number     Number       Type             X           Y           Z
 ---------------------------------------------------------------------
      1          6           0        0.600895   -0.691947    0.536168
      2          6           0        1.484536    1.024250   -0.009020
      3          1           0        1.468917    1.081242   -1.088616
      4          1           0        2.464431    0.898248    0.442055
      5          1           0        0.794805    1.690995    0.509173
      6          8           0        1.147068   -0.952255   -0.298464
      7         17           0       -1.553958    0.114926   -0.037517
 ---------------------------------------------------------------------
 Rotational constants (GHZ):          11.4073337           3.3342696           2.7658585
 Standard basis: 6-31G(d) (6D, 7F)
 There are    70 symmetry adapted cartesian basis functions of A   symmetry.
 There are    70 symmetry adapted basis functions of A   symmetry.
    70 basis functions,   148 primitive gaussians,    70 cartesian basis functions
    20 alpha electrons       20 beta electrons
       nuclear repulsion energy       137.8418508020 Hartrees.
 NAtoms=    7 NActive=    7 NUniq=    7 SFac= 1.00D+00 NAtFMM=   60 NAOKFM=F Big=F
 Integral buffers will be    131072 words long.
 Raffenetti 2 integral format.
 Two-electron integral symmetry is turned on.
 One-electron integrals computed using PRISM.
 NBasis=    70 RedAO= T EigKep=  4.37D-03  NBF=    70
 NBsUse=    70 1.00D-06 EigRej= -1.00D+00 NBFU=    70
 Initial guess from the checkpoint file:  "/wheeler/scratch/mfricke/Gau-21985.chk"
 B after Tr=    -0.000000   -0.000000    0.000000
         Rot=    0.999852    0.001933   -0.006181    0.015962 Ang=   1.97 deg.
 ExpMin= 1.43D-01 ExpMax= 2.52D+04 ExpMxC= 3.78D+03 IAcc=3 IRadAn=         5 AccDes= 0.00D+00
 Harris functional with IExCor=  402 and IRadAn=       5 diagonalized for initial guess.
 HarFok:  IExCor=  402 AccDes= 0.00D+00 IRadAn=         5 IDoV= 1 UseB2=F ITyADJ=14
 ICtDFT=  3500011 ScaDFX=  1.000000  1.000000  1.000000  1.000000
 FoFCou: FMM=F IPFlag=           0 FMFlag=      100000 FMFlg1=           0
         NFxFlg=           0 DoJE=T BraDBF=F KetDBF=T FulRan=T
         wScrn=  0.000000 ICntrl=       500 IOpCl=  0 I1Cent=   200000004 NGrid=           0
         NMat0=    1 NMatS0=      1 NMatT0=    0 NMatD0=    1 NMtDS0=    0 NMtDT0=    0
 Petite list used in FoFCou.
 Keep R1 ints in memory in canonical form, NReq=4876532.
 Requested convergence on RMS density matrix=1.00D-08 within 128 cycles.
 Requested convergence on MAX density matrix=1.00D-06.
 Requested convergence on             energy=1.00D-06.
 No special actions if energy rises.
 Integral accuracy reduced to 1.0D-05 until final iterations.
 Initial convergence to 1.0D-05 achieved.  Increase integral accuracy.
 SCF Done:  E(RB3LYP) =  -613.224827211     A.U. after   17 cycles
            NFock= 17  Conv=0.50D-08     -V/T= 2.0033
 Calling FoFJK, ICntrl=      2127 FMM=F ISym2X=0 I1Cent= 0 IOpClX= 0 NMat=1 NMatS=1 NMatT=0.
 ***** Axes restored to original set *****
 -------------------------------------------------------------------
 Center     Atomic                   Forces (Hartrees/Bohr)
 Number     Number              X              Y              Z
 -------------------------------------------------------------------
      1        6          -0.318918369    0.254097123   -0.093796522
      2        6          -0.034952812    0.010997620    0.022975780
      3        1           0.003064901    0.001726592   -0.005801159
      4        1           0.000561269    0.000006348   -0.001525537
      5        1           0.003195060   -0.001104770   -0.004129907
      6        8           0.350359718   -0.260331481    0.086684326
      7       17          -0.003309768   -0.005391432   -0.004406982
 -------------------------------------------------------------------
 Cartesian Forces:  Max     0.350359718 RMS     0.133651604

 GradGradGradGradGradGradGradGradGradGradGradGradGradGradGradGradGradGrad
 Berny optimization.
 Using GEDIIS/GDIIS optimizer.
 FormGI is forming the generalized inverse of G from B-inverse, IUseBI=4.
 Internal  Forces:  Max     0.390308189 RMS     0.075950158
 Search for a local minimum.
 Step number   5 out of a maximum of   40
 All quantities printed in internal units (Hartrees-Bohrs-Radians)
 Mixed Optimization -- RFO/linear search
 Update second derivatives using D2CorX and points    5    4
 DE=  2.23D-02 DEPred=-6.11D-02 R=-3.65D-01
 Trust test=-3.65D-01 RLast= 6.62D-01 DXMaxT set to 7.14D-01
 ITU= -1  1  1  1  0
 Use linear search instead of GDIIS.
     Eigenvalues ---    0.00495   0.02604   0.04240   0.05428   0.06185
     Eigenvalues ---    0.07131   0.08688   0.09991   0.11101   0.14291
     Eigenvalues ---    0.19245   0.33690   0.35448   0.37230   1.06276
 RFO step:  Lambda=-7.95768943D-02 EMin= 4.94549130D-03
 Quartic linear search produced a step of -0.50523.
 Iteration  1 RMS(Cart)=  0.09969880 RMS(Int)=  0.03330088
 Iteration  2 RMS(Cart)=  0.02589682 RMS(Int)=  0.00692687
 Iteration  3 RMS(Cart)=  0.00019803 RMS(Int)=  0.00692501
 Iteration  4 RMS(Cart)=  0.00000079 RMS(Int)=  0.00692501
 Variable       Old X    -DE/DX   Delta X   Delta X   Delta X     New X
                                 (Linear)    (Quad)   (Total)
    R1        3.79048   0.02021   0.03809  -0.12811  -0.10171   3.68877
    R2        1.94805   0.39031   0.24575   0.05078   0.30117   2.24921
    R3        4.48130  -0.00569   0.07301  -0.42971  -0.35670   4.12460
    R4        2.04319   0.03056  -0.01839   0.08322   0.06051   2.10370
    R5        2.05237  -0.00057  -0.00676   0.03218   0.02542   2.07778
    R6        2.06041  -0.00282  -0.00735   0.03474   0.02739   2.08780
    R7        4.16728   0.00359  -0.09461   0.21390   0.12904   4.29632
    A1        1.33109   0.00223  -0.07090   0.20018   0.11931   1.45040
    A2        1.61424   0.00901  -0.00310   0.02827   0.02993   1.64418
    A3        1.95141   0.00035   0.00181  -0.02469  -0.02537   1.92604
    A4        1.88613   0.01151   0.01673   0.00774   0.01881   1.90494
    A5        1.75719   0.02144   0.02317  -0.05435  -0.03612   1.72107
    A6        1.68641  -0.03296   0.03679  -0.24951  -0.20454   1.48186
    A7        2.01957  -0.00478  -0.01511   0.05073   0.03347   2.05303
    A8        2.01882   0.00215  -0.02205   0.06572   0.03937   2.05819
    A9        2.03120   0.00236  -0.01947   0.08043   0.05035   2.08154
   A10        1.15461   0.06028   0.01645   0.04087   0.06544   1.22005
   A11        1.70578  -0.08983  -0.00277  -0.16369  -0.15542   1.55037
    D1        0.68730   0.00003   0.04066  -0.13163  -0.09378   0.59352
    D2       -1.43730  -0.01015   0.03788  -0.16526  -0.12124  -1.55853
    D3        2.77777  -0.00849   0.03997  -0.16724  -0.12783   2.64994
    D4       -1.26484   0.00200   0.03147  -0.08900  -0.06192  -1.32676
    D5        2.89375  -0.00818   0.02870  -0.12262  -0.08938   2.80437
    D6        0.82563  -0.00652   0.03078  -0.12460  -0.09597   0.72966
    D7       -0.30306   0.00057  -0.01783   0.06120   0.04132  -0.26174
    D8        1.21808   0.01139  -0.05259   0.18171   0.12487   1.34295
    D9       -0.32045  -0.05756  -0.06012   0.05137   0.00576  -0.31469
   D10        1.63306  -0.02616  -0.02902   0.01686  -0.00804   1.62502
   D11       -2.18694  -0.02560  -0.10343   0.31704   0.22377  -1.96317
   D12        0.62862  -0.02730   0.03351  -0.17404  -0.12837   0.50025
         Item               Value     Threshold  Converged?
 Maximum Force            0.390308     0.000450     NO 
 RMS     Force            0.075950     0.000300     NO 
 Maximum Displacement     0.277079     0.001800     NO 
 RMS     Displacement     0.116652     0.001200     NO 
 Predicted change in Energy=-6.692739D-02
 GradGradGradGradGradGradGradGradGradGradGradGradGradGradGradGradGradGrad

                          Input orientation:                          
 ---------------------------------------------------------------------
 Center     Atomic      Atomic             Coordinates (Angstroms)
 Number     Number       Type             X           Y           Z
 ---------------------------------------------------------------------
      1          6           0        0.156417   -0.053260    0.318321
      2          6           0        0.072762   -0.012953    2.268124
      3          1           0        1.107796    0.001014    2.677749
      4          1           0       -0.525903   -0.921581    2.426021
      5          1           0       -0.441283    0.954878    2.127825
      6          8           0        1.132362   -0.705024    0.516785
      7         17           0        0.677709    2.058435    0.136829
 ---------------------------------------------------------------------
                    Distance matrix (angstroms):
                    1          2          3          4          5
     1  C    0.000000
     2  C    1.952013   0.000000
     3  H    2.544596   1.113231   0.000000
     4  H    2.379483   1.099515   1.893019   0.000000
     5  H    2.155896   1.104818   1.900504   1.901888   0.000000
     6  O    1.190233   2.160765   2.273513   2.538094   2.797692
     7  Cl   2.182646   3.032990   3.297610   3.945830   2.536542
                    6          7
     6  O    0.000000
     7  Cl   2.826267   0.000000
 Stoichiometry    C2H3ClO
 Framework group  C1[X(C2H3ClO)]
 Deg. of freedom    15
 Full point group                 C1      NOp   1
 Largest Abelian subgroup         C1      NOp   1
 Largest concise Abelian subgroup C1      NOp   1
                         Standard orientation:                         
 ---------------------------------------------------------------------
 Center     Atomic      Atomic             Coordinates (Angstroms)
 Number     Number       Type             X           Y           Z
 ---------------------------------------------------------------------
      1          6           0        0.515907   -0.540278    0.611345
      2          6           0        1.419431    1.059308   -0.048446
      3          1           0        1.518375    0.992420   -1.155252
      4          1           0        2.338503    0.988260    0.550882
      5          1           0        0.547971    1.600834    0.361345
      6          8           0        1.100981   -1.065003   -0.282526
      7         17           0       -1.460278    0.107314   -0.051421
 ---------------------------------------------------------------------
 Rotational constants (GHZ):          10.6851199           3.6892783           2.9911705
 Standard basis: 6-31G(d) (6D, 7F)
 There are    70 symmetry adapted cartesian basis functions of A   symmetry.
 There are    70 symmetry adapted basis functions of A   symmetry.
    70 basis functions,   148 primitive gaussians,    70 cartesian basis functions
    20 alpha electrons       20 beta electrons
       nuclear repulsion energy       137.9478603495 Hartrees.
 NAtoms=    7 NActive=    7 NUniq=    7 SFac= 1.00D+00 NAtFMM=   60 NAOKFM=F Big=F
 Integral buffers will be    131072 words long.
 Raffenetti 2 integral format.
 Two-electron integral symmetry is turned on.
 One-electron integrals computed using PRISM.
 NBasis=    70 RedAO= T EigKep=  5.81D-03  NBF=    70
 NBsUse=    70 1.00D-06 EigRej= -1.00D+00 NBFU=    70
 Lowest energy guess from the checkpoint file:  "/wheeler/scratch/mfricke/Gau-21985.chk"
 B after Tr=     0.000000   -0.000000    0.000000
         Rot=    0.999120    0.038335   -0.000099    0.017035 Ang=   4.81 deg.
 B after Tr=     0.000000   -0.000000    0.000000
         Rot=    0.999403    0.033995    0.006199   -0.000186 Ang=   3.96 deg.
 Keep R1 ints in memory in canonical form, NReq=4876532.
 Requested convergence on RMS density matrix=1.00D-08 within 128 cycles.
 Requested convergence on MAX density matrix=1.00D-06.
 Requested convergence on             energy=1.00D-06.
 No special actions if energy rises.
 Integral accuracy reduced to 1.0D-05 until final iterations.
 Initial convergence to 1.0D-05 achieved.  Increase integral accuracy.
 SCF Done:  E(RB3LYP) =  -613.288250991     A.U. after   16 cycles
            NFock= 16  Conv=0.62D-08     -V/T= 2.0048
 Calling FoFJK, ICntrl=      2127 FMM=F ISym2X=0 I1Cent= 0 IOpClX= 0 NMat=1 NMatS=1 NMatT=0.
 ***** Axes restored to original set *****
 -------------------------------------------------------------------
 Center     Atomic                   Forces (Hartrees/Bohr)
 Number     Number              X              Y              Z
 -------------------------------------------------------------------
      1        6           0.044146355    0.006243591    0.051957118
      2        6          -0.021997458    0.003781166   -0.011895153
      3        1          -0.017783839    0.000894525   -0.010580191
      4        1           0.004972230    0.010070581    0.005265829
      5        1           0.005407102   -0.010520687    0.015014216
      6        8          -0.008816708   -0.004365975   -0.038893612
      7       17          -0.005927682   -0.006103201   -0.010868207
 -------------------------------------------------------------------
 Cartesian Forces:  Max     0.051957118 RMS     0.019609693

 GradGradGradGradGradGradGradGradGradGradGradGradGradGradGradGradGradGrad
 Berny optimization.
 Using GEDIIS/GDIIS optimizer.
 FormGI is forming the generalized inverse of G from B-inverse, IUseBI=4.
 Internal  Forces:  Max     0.028531412 RMS     0.012975674
 Search for a local minimum.
 Step number   6 out of a maximum of   40
 All quantities printed in internal units (Hartrees-Bohrs-Radians)
 Mixed Optimization -- RFO/linear search
 Update second derivatives using D2CorX and points    4    6
 DE= -4.11D-02 DEPred=-6.69D-02 R= 6.14D-01
 TightC=F SS=  1.41D+00  RLast= 1.05D+00 DXNew= 1.2000D+00 3.1411D+00
 Trust test= 6.14D-01 RLast= 1.05D+00 DXMaxT set to 1.20D+00
 ITU=  1 -1  1  1  1  0
 Use linear search instead of GDIIS.
     Eigenvalues ---    0.00416   0.02227   0.03871   0.05305   0.06077
     Eigenvalues ---    0.07220   0.08869   0.10115   0.11308   0.15162
     Eigenvalues ---    0.18720   0.35202   0.36858   0.37228   0.82185
 RFO step:  Lambda=-3.34246530D-02 EMin= 4.15824286D-03
 Quartic linear search produced a step of  0.25794.
 Iteration  1 RMS(Cart)=  0.08534708 RMS(Int)=  0.02986018
 Iteration  2 RMS(Cart)=  0.02428262 RMS(Int)=  0.01290244
 Iteration  3 RMS(Cart)=  0.00067465 RMS(Int)=  0.01288622
 Iteration  4 RMS(Cart)=  0.00002086 RMS(Int)=  0.01288620
 Iteration  5 RMS(Cart)=  0.00000056 RMS(Int)=  0.01288620
 Variable       Old X    -DE/DX   Delta X   Delta X   Delta X     New X
                                 (Linear)    (Quad)   (Total)
    R1        3.68877  -0.01006  -0.04568  -0.10755  -0.14109   3.54768
    R2        2.24921  -0.02054  -0.04778  -0.14270  -0.18308   2.06613
    R3        4.12460  -0.00642  -0.12928  -0.15561  -0.28489   3.83971
    R4        2.10370  -0.01249   0.02499  -0.00349   0.01875   2.12245
    R5        2.07778  -0.01027   0.01001  -0.01873  -0.00872   2.06906
    R6        2.08780  -0.01364   0.01082  -0.02761  -0.01679   2.07101
    R7        4.29632   0.00886   0.08158   0.18005   0.25009   4.54640
    A1        1.45040   0.02853   0.06697   0.21619   0.29363   1.74403
    A2        1.64418   0.01717   0.00930   0.14777   0.15003   1.79421
    A3        1.92604   0.00931  -0.00747   0.05291  -0.00271   1.92333
    A4        1.90494  -0.02164  -0.00369  -0.10629  -0.10400   1.80094
    A5        1.72107   0.01160  -0.02115   0.05175   0.02903   1.75011
    A6        1.48186   0.01938  -0.07154   0.07206  -0.00011   1.48176
    A7        2.05303   0.00098   0.01635  -0.00134   0.00802   2.06105
    A8        2.05819  -0.00386   0.02142  -0.00001   0.01526   2.07346
    A9        2.08154  -0.00121   0.02293  -0.00565   0.00786   2.08940
   A10        1.22005   0.01646   0.00848   0.06056   0.04589   1.26594
   A11        1.55037  -0.02457  -0.03867  -0.17788  -0.21666   1.33371
    D1        0.59352   0.00326  -0.04495   0.02960  -0.00516   0.58836
    D2       -1.55853   0.00503  -0.05061   0.04798   0.01284  -1.54570
    D3        2.64994   0.00407  -0.05338   0.04573   0.00516   2.65510
    D4       -1.32676  -0.00535  -0.03204  -0.01604  -0.06634  -1.39310
    D5        2.80437  -0.00357  -0.03771   0.00233  -0.04834   2.75603
    D6        0.72966  -0.00454  -0.04047   0.00008  -0.05602   0.67364
    D7       -0.26174  -0.00130   0.01976  -0.01094  -0.00079  -0.26253
    D8        1.34295   0.02658   0.05906   0.22110   0.27425   1.61720
    D9       -0.31469   0.00291   0.03218   0.01871   0.05119  -0.26350
   D10        1.62502   0.00312   0.01274   0.00957   0.02143   1.64645
   D11       -1.96317  -0.00670   0.11052  -0.00815   0.10429  -1.85888
   D12        0.50025   0.00300  -0.05022   0.00948  -0.03577   0.46448
         Item               Value     Threshold  Converged?
 Maximum Force            0.028531     0.000450     NO 
 RMS     Force            0.012976     0.000300     NO 
 Maximum Displacement     0.299800     0.001800     NO 
 RMS     Displacement     0.103652     0.001200     NO 
 Predicted change in Energy=-2.594267D-02
 GradGradGradGradGradGradGradGradGradGradGradGradGradGradGradGradGradGrad

                          Input orientation:                          
 ---------------------------------------------------------------------
 Center     Atomic      Atomic             Coordinates (Angstroms)
 Number     Number       Type             X           Y           Z
 ---------------------------------------------------------------------
      1          6           0        0.248927   -0.002244    0.448770
      2          6           0        0.036262   -0.014301    2.314000
      3          1           0        1.093638   -0.031611    2.692318
      4          1           0       -0.569653   -0.918115    2.435620
      5          1           0       -0.455780    0.953725    2.166072
      6          8           0        1.152244   -0.611521    0.358138
      7         17           0        0.674221    1.945576    0.056738
 ---------------------------------------------------------------------
                    Distance matrix (angstroms):
                    1          2          3          4          5
     1  C    0.000000
     2  C    1.877354   0.000000
     3  H    2.397479   1.123151   0.000000
     4  H    2.335908   1.094899   1.902189   0.000000
     5  H    2.087969   1.095930   1.910110   1.894574   0.000000
     6  O    1.093350   2.329697   2.405853   2.715670   2.881729
     7  Cl   2.031887   3.056688   3.321364   3.925178   2.590358
                    6          7
     6  O    0.000000
     7  Cl   2.618796   0.000000
 Stoichiometry    C2H3ClO
 Framework group  C1[X(C2H3ClO)]
 Deg. of freedom    15
 Full point group                 C1      NOp   1
 Largest Abelian subgroup         C1      NOp   1
 Largest concise Abelian subgroup C1      NOp   1
                         Standard orientation:                         
 ---------------------------------------------------------------------
 Center     Atomic      Atomic             Coordinates (Angstroms)
 Number     Number       Type             X           Y           Z
 ---------------------------------------------------------------------
      1          6           0        0.470308   -0.437413    0.490707
      2          6           0        1.567203    0.978306   -0.072338
      3          1           0        1.675279    0.795676   -1.175259
      4          1           0        2.441634    0.813478    0.565633
      5          1           0        0.751736    1.620648    0.279048
      6          8           0        0.810652   -1.221956   -0.190522
      7         17           0       -1.386996    0.194146   -0.038557
 ---------------------------------------------------------------------
 Rotational constants (GHZ):          10.5581930           4.0582565           3.1264307
 Standard basis: 6-31G(d) (6D, 7F)
 There are    70 symmetry adapted cartesian basis functions of A   symmetry.
 There are    70 symmetry adapted basis functions of A   symmetry.
    70 basis functions,   148 primitive gaussians,    70 cartesian basis functions
    20 alpha electrons       20 beta electrons
       nuclear repulsion energy       142.9099841695 Hartrees.
 NAtoms=    7 NActive=    7 NUniq=    7 SFac= 1.00D+00 NAtFMM=   60 NAOKFM=F Big=F
 Integral buffers will be    131072 words long.
 Raffenetti 2 integral format.
 Two-electron integral symmetry is turned on.
 One-electron integrals computed using PRISM.
 NBasis=    70 RedAO= T EigKep=  4.06D-03  NBF=    70
 NBsUse=    70 1.00D-06 EigRej= -1.00D+00 NBFU=    70
 Initial guess from the checkpoint file:  "/wheeler/scratch/mfricke/Gau-21985.chk"
 B after Tr=    -0.000000   -0.000000   -0.000000
         Rot=    0.998337    0.027612   -0.003304    0.050495 Ang=   6.61 deg.
 ExpMin= 1.43D-01 ExpMax= 2.52D+04 ExpMxC= 3.78D+03 IAcc=3 IRadAn=         5 AccDes= 0.00D+00
 Harris functional with IExCor=  402 and IRadAn=       5 diagonalized for initial guess.
 HarFok:  IExCor=  402 AccDes= 0.00D+00 IRadAn=         5 IDoV= 1 UseB2=F ITyADJ=14
 ICtDFT=  3500011 ScaDFX=  1.000000  1.000000  1.000000  1.000000
 FoFCou: FMM=F IPFlag=           0 FMFlag=      100000 FMFlg1=           0
         NFxFlg=           0 DoJE=T BraDBF=F KetDBF=T FulRan=T
         wScrn=  0.000000 ICntrl=       500 IOpCl=  0 I1Cent=   200000004 NGrid=           0
         NMat0=    1 NMatS0=      1 NMatT0=    0 NMatD0=    1 NMtDS0=    0 NMtDT0=    0
 Petite list used in FoFCou.
 Keep R1 ints in memory in canonical form, NReq=4876532.
 Requested convergence on RMS density matrix=1.00D-08 within 128 cycles.
 Requested convergence on MAX density matrix=1.00D-06.
 Requested convergence on             energy=1.00D-06.
 No special actions if energy rises.
 Integral accuracy reduced to 1.0D-05 until final iterations.
 Initial convergence to 1.0D-05 achieved.  Increase integral accuracy.
 SCF Done:  E(RB3LYP) =  -613.312514417     A.U. after   16 cycles
            NFock= 16  Conv=0.23D-08     -V/T= 2.0040
 Calling FoFJK, ICntrl=      2127 FMM=F ISym2X=0 I1Cent= 0 IOpClX= 0 NMat=1 NMatS=1 NMatT=0.
 ***** Axes restored to original set *****
 -------------------------------------------------------------------
 Center     Atomic                   Forces (Hartrees/Bohr)
 Number     Number              X              Y              Z
 -------------------------------------------------------------------
      1        6          -0.104769407    0.119759958    0.092844779
      2        6          -0.016961931    0.009017100   -0.044205186
      3        1          -0.024168618    0.001141674   -0.010520458
      4        1           0.001801086    0.008460715    0.010365746
      5        1          -0.000731654   -0.005469623    0.028499689
      6        8           0.159743767   -0.140688998   -0.065641110
      7       17          -0.014913243    0.007779174   -0.011343459
 -------------------------------------------------------------------
 Cartesian Forces:  Max     0.159743767 RMS     0.064739487

 GradGradGradGradGradGradGradGradGradGradGradGradGradGradGradGradGradGrad
 Berny optimization.
 Using GEDIIS/GDIIS optimizer.
 FormGI is forming the generalized inverse of G from B-inverse, IUseBI=4.
 Internal  Forces:  Max     0.184314318 RMS     0.039093157
 Search for a local minimum.
 Step number   7 out of a maximum of   40
 All quantities printed in internal units (Hartrees-Bohrs-Radians)
 Mixed Optimization -- RFO/linear search
 Update second derivatives using D2CorX and points    6    7
 DE= -2.43D-02 DEPred=-2.59D-02 R= 9.35D-01
 TightC=F SS=  1.41D+00  RLast= 6.84D-01 DXNew= 2.0182D+00 2.0527D+00
 Trust test= 9.35D-01 RLast= 6.84D-01 DXMaxT set to 2.02D+00
 ITU=  1  1 -1  1  1  1  0
 Use linear search instead of GDIIS.
     Eigenvalues ---    0.00387   0.01657   0.04462   0.05398   0.06272
     Eigenvalues ---    0.07391   0.09344   0.09545   0.10875   0.13992
[...]
     6  O    1.187091   2.423534   2.595076   3.116936   3.116783
     7  Cl   1.835451   2.768481   3.732953   2.942876   2.943132
                    6          7
     6  O    0.000000
     7  Cl   2.640563   0.000000
 Stoichiometry    C2H3ClO
 Framework group  C1[X(C2H3ClO)]
 Deg. of freedom    15
 Full point group                 C1      NOp   1
 Largest Abelian subgroup         C1      NOp   1
 Largest concise Abelian subgroup C1      NOp   1
                         Standard orientation:                         
 ---------------------------------------------------------------------
 Center     Atomic      Atomic             Coordinates (Angstroms)
 Number     Number       Type             X           Y           Z
 ---------------------------------------------------------------------
      1          6           0        0.486648   -0.241808    0.000006
      2          6           0        1.320132    1.009527    0.000005
      3          1           0        2.376959    0.734329    0.000245
      4          1           0        1.082878    1.611411    0.882585
      5          1           0        1.083255    1.611139   -0.882873
      6          8           0        0.857583   -1.369457   -0.000002
      7         17           0       -1.308496    0.140733   -0.000001
 ---------------------------------------------------------------------
 Rotational constants (GHZ):          10.0676499           4.8049929           3.3197301
 Standard basis: 6-31G(d) (6D, 7F)
 There are    70 symmetry adapted cartesian basis functions of A   symmetry.
 There are    70 symmetry adapted basis functions of A   symmetry.
    70 basis functions,   148 primitive gaussians,    70 cartesian basis functions
    20 alpha electrons       20 beta electrons
       nuclear repulsion energy       147.6416662733 Hartrees.
 NAtoms=    7 NActive=    7 NUniq=    7 SFac= 1.00D+00 NAtFMM=   60 NAOKFM=F Big=F
 Integral buffers will be    131072 words long.
 Raffenetti 2 integral format.
 Two-electron integral symmetry is turned on.
 One-electron integrals computed using PRISM.
 NBasis=    70 RedAO= T EigKep=  5.05D-03  NBF=    70
 NBsUse=    70 1.00D-06 EigRej= -1.00D+00 NBFU=    70
 Initial guess from the checkpoint file:  "/wheeler/scratch/mfricke/Gau-21985.chk"
 B after Tr=    -0.000000    0.000000    0.000000
         Rot=    1.000000   -0.000151   -0.000092   -0.000398 Ang=  -0.05 deg.
 Keep R1 ints in memory in canonical form, NReq=4876532.
 Requested convergence on RMS density matrix=1.00D-08 within 128 cycles.
 Requested convergence on MAX density matrix=1.00D-06.
 Requested convergence on             energy=1.00D-06.
 No special actions if energy rises.
 SCF Done:  E(RB3LYP) =  -613.445916426     A.U. after    7 cycles
            NFock=  7  Conv=0.93D-08     -V/T= 2.0046
 Calling FoFJK, ICntrl=      2127 FMM=F ISym2X=0 I1Cent= 0 IOpClX= 0 NMat=1 NMatS=1 NMatT=0.
 ***** Axes restored to original set *****
 -------------------------------------------------------------------
 Center     Atomic                   Forces (Hartrees/Bohr)
 Number     Number              X              Y              Z
 -------------------------------------------------------------------
      1        6          -0.000023691    0.000015134    0.000011162
      2        6           0.000010312   -0.000006752    0.000004832
      3        1          -0.000007420    0.000007143   -0.000004561
      4        1          -0.000000167    0.000004382    0.000005903
      5        1          -0.000006978   -0.000004532   -0.000001104
      6        8           0.000022405   -0.000012322   -0.000014590
      7       17           0.000005539   -0.000003054   -0.000001643
 -------------------------------------------------------------------
 Cartesian Forces:  Max     0.000023691 RMS     0.000010353

 GradGradGradGradGradGradGradGradGradGradGradGradGradGradGradGradGradGrad
 Berny optimization.
 Using GEDIIS/GDIIS optimizer.
 FormGI is forming the generalized inverse of G from B-inverse, IUseBI=4.
 Internal  Forces:  Max     0.000024402 RMS     0.000005978
 Search for a local minimum.
 Step number  30 out of a maximum of   40
 All quantities printed in internal units (Hartrees-Bohrs-Radians)
 Mixed Optimization -- En-DIIS/RFO-DIIS
 Swapping is turned off.
 Update second derivatives using D2CorX and points   25   26   27   28   29
                                                     30
 DE= -4.13D-07 DEPred=-3.40D-07 R= 1.22D+00
 Trust test= 1.22D+00 RLast= 1.17D-02 DXMaxT set to 2.78D+00
 ITU=  0  1  1  1  1  1  0  0  1  0  0  0  1  1  1  1  1  1  0  0
 ITU=  0  1  1  1  1 -1  1  1  1  0
     Eigenvalues ---    0.00113   0.02049   0.03041   0.04997   0.07130
     Eigenvalues ---    0.07736   0.10757   0.11953   0.18220   0.22393
     Eigenvalues ---    0.27995   0.34059   0.35972   0.37398   0.98154
 En-DIIS/RFO-DIIS/Sim-DIIS IScMMF=       -3 using points:    30   29   28   27   26   25   24
 RFO step:  Lambda=-2.46737786D-09.
 DIIS inversion failure, remove point   7.
 RFO-DIIS uses    6 points instead of    7
 DidBck=F Rises=F RFO-DIIS coefs:    0.96331    0.04692   -0.00921   -0.01185    0.01070
                  RFO-DIIS coefs:    0.00013    0.00000
 Iteration  1 RMS(Cart)=  0.00012658 RMS(Int)=  0.00000123
 Iteration  2 RMS(Cart)=  0.00000001 RMS(Int)=  0.00000123
 Variable       Old X    -DE/DX   Delta X   Delta X   Delta X     New X
                                 (Linear)    (Quad)   (Total)
    R1        2.84122   0.00000   0.00001  -0.00001   0.00000   2.84122
    R2        2.24328   0.00002   0.00000   0.00003   0.00003   2.24331
    R3        3.46850  -0.00000   0.00002  -0.00006  -0.00005   3.46845
    R4        2.06371  -0.00001  -0.00002  -0.00002  -0.00003   2.06368
    R5        2.06793  -0.00000  -0.00000  -0.00000  -0.00001   2.06793
    R6        2.06795  -0.00000  -0.00002   0.00000  -0.00002   2.06793
    R7        4.90398   0.00000   0.00003  -0.00001   0.00003   4.90401
    A1        2.23620  -0.00000   0.00001  -0.00002  -0.00001   2.23620
    A2        1.94843   0.00001  -0.00001   0.00004   0.00004   1.94847
    A3        2.09855  -0.00001  -0.00000  -0.00003  -0.00003   2.09852
    A4        1.90365  -0.00000  -0.00000   0.00001   0.00002   1.90366
    A5        1.91514   0.00001  -0.00000   0.00003   0.00003   1.91516
    A6        1.91512   0.00000   0.00002   0.00003   0.00005   1.91517
    A7        1.92649  -0.00000  -0.00002  -0.00001  -0.00003   1.92645
    A8        1.92644   0.00000   0.00000   0.00001   0.00000   1.92644
    A9        1.87694  -0.00001   0.00001  -0.00007  -0.00007   1.87687
   A10        1.20006   0.00001  -0.00000   0.00000  -0.00000   1.20006
   A11        0.94327  -0.00000  -0.00002   0.00000  -0.00001   0.94327
    D1       -0.00024  -0.00000   0.00028  -0.00002   0.00027   0.00003
    D2       -2.11253  -0.00000   0.00031  -0.00003   0.00028  -2.11225
    D3        2.11198   0.00000   0.00029   0.00002   0.00031   2.11230
    D4        3.14136   0.00000   0.00025   0.00000   0.00025  -3.14157
    D5        1.02907  -0.00000   0.00027  -0.00001   0.00026   1.02933
    D6       -1.02960   0.00000   0.00026   0.00004   0.00030  -1.02930
    D7        0.00012   0.00000  -0.00014   0.00001  -0.00013  -0.00001
    D8       -3.14149  -0.00000  -0.00010  -0.00001  -0.00011   3.14159
    D9        0.00009   0.00000  -0.00011   0.00001  -0.00010  -0.00001
   D10        2.10544   0.00000  -0.00013   0.00004  -0.00008   2.10536
   D11       -2.10520  -0.00000  -0.00013  -0.00005  -0.00018  -2.10538
   D12       -0.00014  -0.00000   0.00016  -0.00001   0.00015   0.00001
         Item               Value     Threshold  Converged?
 Maximum Force            0.000024     0.000450     YES
 RMS     Force            0.000006     0.000300     YES
 Maximum Displacement     0.000310     0.001800     YES
 RMS     Displacement     0.000127     0.001200     YES
 Predicted change in Energy=-1.910524D-09
 Optimization completed.
    -- Stationary point found.
                           ----------------------------
                           !   Optimized Parameters   !
                           ! (Angstroms and Degrees)  !
 --------------------------                            --------------------------
 ! Name  Definition              Value          Derivative Info.                !
 --------------------------------------------------------------------------------
 ! R1    R(1,2)                  1.5035         -DE/DX =    0.0                 !
 ! R2    R(1,6)                  1.1871         -DE/DX =    0.0                 !
 ! R3    R(1,7)                  1.8355         -DE/DX =    0.0                 !
 ! R4    R(2,3)                  1.0921         -DE/DX =    0.0                 !
 ! R5    R(2,4)                  1.0943         -DE/DX =    0.0                 !
 ! R6    R(2,5)                  1.0943         -DE/DX =    0.0                 !
 ! R7    R(3,6)                  2.5951         -DE/DX =    0.0                 !
 ! A1    A(2,1,6)              128.125          -DE/DX =    0.0                 !
 ! A2    A(2,1,7)              111.637          -DE/DX =    0.0                 !
 ! A3    A(6,1,7)              120.238          -DE/DX =    0.0                 !
 ! A4    A(1,2,3)              109.0709         -DE/DX =    0.0                 !
 ! A5    A(1,2,4)              109.7292         -DE/DX =    0.0                 !
 ! A6    A(1,2,5)              109.7281         -DE/DX =    0.0                 !
 ! A7    A(3,2,4)              110.3795         -DE/DX =    0.0                 !
 ! A8    A(3,2,5)              110.3767         -DE/DX =    0.0                 !
 ! A9    A(4,2,5)              107.5407         -DE/DX =    0.0                 !
 ! A10   A(2,3,6)               68.7585         -DE/DX =    0.0                 !
 ! A11   A(1,6,3)               54.0456         -DE/DX =    0.0                 !
 ! D1    D(6,1,2,3)             -0.0139         -DE/DX =    0.0                 !
 ! D2    D(6,1,2,4)           -121.0393         -DE/DX =    0.0                 !
 ! D3    D(6,1,2,5)            121.0076         -DE/DX =    0.0                 !
 ! D4    D(7,1,2,3)           -180.0131         -DE/DX =    0.0                 !
 ! D5    D(7,1,2,4)             58.9615         -DE/DX =    0.0                 !
 ! D6    D(7,1,2,5)            -58.9916         -DE/DX =    0.0                 !
 ! D7    D(2,1,6,3)              0.0068         -DE/DX =    0.0                 !
 ! D8    D(7,1,6,3)            180.0059         -DE/DX =    0.0                 !
 ! D9    D(1,2,3,6)              0.0054         -DE/DX =    0.0                 !
 ! D10   D(4,2,3,6)            120.633          -DE/DX =    0.0                 !
 ! D11   D(5,2,3,6)           -120.6193         -DE/DX =    0.0                 !
 ! D12   D(2,3,6,1)             -0.0079         -DE/DX =    0.0                 !
 --------------------------------------------------------------------------------
 GradGradGradGradGradGradGradGradGradGradGradGradGradGradGradGradGradGrad

                          Input orientation:                          
 ---------------------------------------------------------------------
 Center     Atomic      Atomic             Coordinates (Angstroms)
 Number     Number       Type             X           Y           Z
 ---------------------------------------------------------------------
      1          6           0        0.714995    0.169541    0.779759
      2          6           0        0.116150    0.061645    2.154632
      3          1           0        0.688011   -0.663934    2.736978
      4          1           0       -0.929952   -0.250401    2.078471
      5          1           0        0.133527    1.040788    2.642995
      6          8           0        1.653029   -0.411015    0.341318
      7         17           0       -0.195900    1.374885   -0.262497
 ---------------------------------------------------------------------
                    Distance matrix (angstroms):
                    1          2          3          4          5
     1  C    0.000000
     2  C    1.503507   0.000000
     3  H    2.127467   1.092071   0.000000
     4  H    2.137488   1.094304   1.795117   0.000000
     5  H    2.137481   1.094313   1.795094   1.765458   0.000000
     6  O    1.187091   2.423534   2.595076   3.116936   3.116783
     7  Cl   1.835451   2.768481   3.732953   2.942876   2.943132
                    6          7
     6  O    0.000000
     7  Cl   2.640563   0.000000
 Stoichiometry    C2H3ClO
 Framework group  C1[X(C2H3ClO)]
 Deg. of freedom    15
 Full point group                 C1      NOp   1
 Largest Abelian subgroup         C1      NOp   1
 Largest concise Abelian subgroup C1      NOp   1
                         Standard orientation:                         
 ---------------------------------------------------------------------
 Center     Atomic      Atomic             Coordinates (Angstroms)
 Number     Number       Type             X           Y           Z
 ---------------------------------------------------------------------
      1          6           0        0.486648   -0.241808    0.000006
      2          6           0        1.320132    1.009527    0.000005
      3          1           0        2.376959    0.734329    0.000245
      4          1           0        1.082878    1.611411    0.882585
      5          1           0        1.083255    1.611139   -0.882873
      6          8           0        0.857583   -1.369457   -0.000002
      7         17           0       -1.308496    0.140733   -0.000001
 ---------------------------------------------------------------------
 Rotational constants (GHZ):          10.0676499           4.8049929           3.3197301

 **********************************************************************

            Population analysis using the SCF Density.

 **********************************************************************

 Orbital symmetries:
       Occupied  (A) (A) (A) (A) (A) (A) (A) (A) (A) (A) (A) (A)
                 (A) (A) (A) (A) (A) (A) (A) (A)
       Virtual   (A) (A) (A) (A) (A) (A) (A) (A) (A) (A) (A) (A)
                 (A) (A) (A) (A) (A) (A) (A) (A) (A) (A) (A) (A)
                 (A) (A) (A) (A) (A) (A) (A) (A) (A) (A) (A) (A)
                 (A) (A) (A) (A) (A) (A) (A) (A) (A) (A) (A) (A)
                 (A) (A)
 The electronic state is 1-A.
 Alpha  occ. eigenvalues -- -101.54461 -19.19252 -10.34960 -10.22744  -9.46239
 Alpha  occ. eigenvalues --   -7.22526  -7.21746  -7.21625  -1.10122  -0.84785
 Alpha  occ. eigenvalues --   -0.76948  -0.56662  -0.49640  -0.48118  -0.47779
 Alpha  occ. eigenvalues --   -0.42503  -0.40602  -0.32368  -0.32071  -0.30018
 Alpha virt. eigenvalues --   -0.04162   0.01461   0.09424   0.13328   0.14588
 Alpha virt. eigenvalues --    0.22171   0.26481   0.37439   0.42014   0.45260
 Alpha virt. eigenvalues --    0.45271   0.51426   0.52136   0.58260   0.64755
 Alpha virt. eigenvalues --    0.66076   0.68342   0.77857   0.82466   0.85200
 Alpha virt. eigenvalues --    0.86859   0.87215   0.87890   0.88904   0.91836
 Alpha virt. eigenvalues --    1.01492   1.01679   1.03452   1.10400   1.29763
 Alpha virt. eigenvalues --    1.37442   1.53440   1.56035   1.70291   1.78878
 Alpha virt. eigenvalues --    1.79191   1.81545   2.03154   2.03534   2.15073
 Alpha virt. eigenvalues --    2.27318   2.35527   2.50961   2.57464   2.82432
 Alpha virt. eigenvalues --    2.94742   3.89392   4.03137   4.25461   4.35713
          Condensed to atoms (all electrons):
               1          2          3          4          5          6
     1  C    4.618296   0.324123  -0.025475  -0.021589  -0.021591   0.578352
     2  C    0.324123   5.281871   0.355627   0.359815   0.359819  -0.064906
     3  H   -0.025475   0.355627   0.509035  -0.021615  -0.021614   0.002142
     4  H   -0.021589   0.359815  -0.021615   0.497366  -0.022541   0.000957
     5  H   -0.021591   0.359819  -0.021614  -0.022541   0.497362   0.000955
     6  O    0.578352  -0.064906   0.002142   0.000957   0.000955   7.885859
     7  Cl   0.229932  -0.109271   0.005205   0.002365   0.002362  -0.074426
               7
     1  C    0.229932
     2  C   -0.109271
     3  H    0.005205
     4  H    0.002365
     5  H    0.002362
     6  O   -0.074426
     7  Cl  17.032960
 Mulliken charges:
               1
     1  C    0.317951
     2  C   -0.507077
     3  H    0.196696
     4  H    0.205242
     5  H    0.205247
     6  O   -0.328933
     7  Cl  -0.089127
 Sum of Mulliken charges =   0.00000
 Mulliken charges with hydrogens summed into heavy atoms:
               1
     1  C    0.317951
     2  C    0.100108
     6  O   -0.328933
     7  Cl  -0.089127
 Electronic spatial extent (au):  <R**2>=            367.1794
 Charge=              0.0000 electrons
 Dipole moment (field-independent basis, Debye):
    X=              1.7052    Y=              2.3311    Z=             -0.0000  Tot=              2.8882
 Quadrupole moment (field-independent basis, Debye-Ang):
   XX=            -29.7754   YY=            -31.6247   ZZ=            -29.1939
   XY=              2.6231   XZ=             -0.0001   YZ=             -0.0001
 Traceless Quadrupole moment (field-independent basis, Debye-Ang):
   XX=              0.4226   YY=             -1.4267   ZZ=              1.0041
   XY=              2.6231   XZ=             -0.0001   YZ=             -0.0001
 Octapole moment (field-independent basis, Debye-Ang**2):
  XXX=              1.2337  YYY=              1.6134  ZZZ=             -0.0007  XYY=             -0.9074
  XXY=              1.8034  XXZ=              0.0002  XZZ=              0.9043  YZZ=             -0.5537
  YYZ=              0.0001  XYZ=             -0.0004
 Hexadecapole moment (field-independent basis, Debye-Ang**3):
 XXXX=           -258.5553 YYYY=           -149.9871 ZZZZ=            -34.7694 XXXY=             -3.0928
 XXXZ=              0.0014 YYYX=              0.3014 YYYZ=              0.0006 ZZZX=             -0.0010
 ZZZY=             -0.0009 XXYY=            -72.8429 XXZZ=            -52.6836 YYZZ=            -27.6966
 XXYZ=             -0.0005 YYXZ=             -0.0007 ZZXY=             -0.7302
 N-N= 1.476416662733D+02 E-N=-1.746844548480D+03  KE= 6.106567345210D+02
 B after Tr=     0.280040    1.315993   -0.152132
         Rot=    0.956155   -0.124134    0.069161    0.256077 Ang= -34.06 deg.
 Final structure in terms of initial Z-matrix:
 C
 C,1,B1
 H,2,B2,1,A2
 H,2,B3,1,A3,3,D3,0
 H,2,B4,1,A4,3,D4,0
 O,1,B5,2,A5,3,D5,0
 Cl,1,B6,2,A6,3,D6,0
      Variables:
 B1=1.50350708
 B2=1.09207051
 A2=109.07090941
 B3=1.09430395
 A3=109.7292065
 D3=-121.02545733
 B4=1.09431305
 A4=109.72813657
 D4=121.02143218
 B5=1.18709083
 A5=128.12501431
 D5=-0.0138712
 B6=1.83545103
 A6=111.63696291
 D6=179.98694271
 Unable to Open any file for archive entry.
 1\1\GINC-WHEELER301\FOpt\RB3LYP\6-31G(d)\C2H3Cl1O1\MFRICKE\01-Sep-2020
 \0\\#n B3LYP/6-31G(d) Opt\\Acetyl-Chloride\\0,1\C,0.714994844,0.169540
 9648,0.7797585608\C,0.1161496229,0.0616451409,2.1546318008\H,0.6880108
 547,-0.6639343107,2.7369780715\H,-0.9299516247,-0.2504011528,2.0784713
 377\H,0.1335266292,1.0407878679,2.6429949979\O,1.6530294301,-0.4110152
 127,0.3413178183\Cl,-0.1958996665,1.3748849801,-0.2624974021\\Version=
 ES64L-G16RevC.01\State=1-A\HF=-613.4459164\RMSD=9.278e-09\RMSF=1.035e-
 05\Dipole=-0.4175812,-0.1153196,1.0504873\Quadrupole=-1.2222886,-0.336
 774,1.5590626,1.5625112,0.1330605,-0.464505\PG=C01 [X(C2H3Cl1O1)]\\@
 The archive entry for this job was punched.


 ... IT CAN BE VERY DIFFICULT, IN THESE COMPLEX TIMES,
 TO UNDERSTAND JUST HOW SCIENTISTS DO WHAT THEY DO.

                     DON MOSER IN THE FEBRUARY 1979 SMITHSONIAN
 Job cpu time:       0 days  0 hours  9 minutes 24.2 seconds.
 Elapsed time:       0 days  0 hours  4 minutes 56.0 seconds.
 File lengths (MBytes):  RWF=     17 Int=      0 D2E=      0 Chk=      2 Scr=      2
 Normal termination of Gaussian 16 at Tue Sep  1 18:32:18 2020.
