
Running Job 1 of 1 /carc/scratch/projects/mfricke/mfricke2016402/test-programs/q-chem/water_b3lyp.in
qchem /carc/scratch/projects/mfricke/mfricke2016402/test-programs/q-chem/water_b3lyp.in_1900807.0 /carc/scratch/users/mfricke//carc/scratch/projects/mfricke/mfricke2016402/test-programs/q-chem/run-6.4-shm-4234747/scratch/ 1
/opt/local/q-chem/6.4/cpu/exe/qcprog.exe_s /carc/scratch/projects/mfricke/mfricke2016402/test-programs/q-chem/water_b3lyp.in_1900807.0 /carc/scratch/users/mfricke//carc/scratch/projects/mfricke/mfricke2016402/test-programs/q-chem/run-6.4-shm-4234747/scratch/
                  Welcome to Q-Chem
     A Quantum Leap Into The Future Of Chemistry


 Q-Chem 6.4, Q-Chem, Inc., Pleasanton, CA (2025)

 Q-Chem was unable to find a valid license file:
  - If you have a license file, please make sure it is accessible at
    /opt/local/q-chem/6.4/cpu/qcaux/license/qchem.license.dat
  - If you do not have a license file, you can obtain a temporary license by
    submitting an evaluation request at https://q-chem.com

