/*--------------------------------*- C++ -*----------------------------------*\
| =========                 |                                                 |
| \\      /  F ield         | OpenFOAM: The Open Source CFD Toolbox           |
|  \\    /   O peration     | Version:  v2012                                 |
|   \\  /    A nd           | Website:  www.openfoam.com                      |
|    \\/     M anipulation  |                                                 |
\*---------------------------------------------------------------------------*/
FoamFile
{
    version     2.0;
    format      ascii;
    class       volVectorField;
    location    "0.25";
    object      U;
}
// * * * * * * * * * * * * * * * * * * * * * * * * * * * * * * * * * * * * * //

dimensions      [0 1 -1 0 0 0 0];


internalField   nonuniform List<vector> 
1250
(
(-0.00705399 -8.09293e-06 0)
(-0.00699572 -2.69298e-05 0)
(-0.00687629 -4.55109e-05 0)
(-0.00669703 -6.35727e-05 0)
(-0.00646018 -8.08439e-05 0)
(-0.00616885 -9.70454e-05 0)
(-0.00582708 -0.000111892 0)
(-0.00543981 -0.000125097 0)
(-0.00501291 -0.000136369 0)
(-0.00455313 -0.000145425 0)
(-0.0040681 -0.000151985 0)
(-0.00356629 -0.00015578 0)
(-0.00305691 -0.000156556 0)
(-0.00254988 -0.000154078 0)
(-0.0020557 -0.000148132 0)
(-0.00158534 -0.000138535 0)
(-0.00115006 -0.000125139 0)
(-0.000761212 -0.00010785 0)
(-0.000429925 -8.66652e-05 0)
(-0.0001666 -6.17673e-05 0)
(1.99062e-05 -3.37447e-05 0)
(0.000123657 -4.07886e-06 0)
(0.000144835 2.37779e-05 0)
(9.97792e-05 4.17567e-05 0)
(3.21137e-05 3.20463e-05 0)
(-0.0198981 -5.41401e-05 0)
(-0.0197374 -0.000174719 0)
(-0.0194103 -0.000293462 0)
(-0.0189207 -0.000408662 0)
(-0.0182748 -0.000518577 0)
(-0.0174814 -0.000621432 0)
(-0.0165515 -0.000715437 0)
(-0.0154989 -0.000798804 0)
(-0.0143393 -0.000869766 0)
(-0.0130913 -0.000926601 0)
(-0.0117754 -0.000967665 0)
(-0.0104143 -0.000991418 0)
(-0.00903249 -0.000996465 0)
(-0.00765629 -0.000981597 0)
(-0.00631311 -0.000945846 0)
(-0.00503126 -0.000888549 0)
(-0.00383929 -0.000809449 0)
(-0.00276527 -0.000708856 0)
(-0.00183568 -0.000587921 0)
(-0.00107395 -0.000449148 0)
(-0.000498133 -0.000297376 0)
(-0.000117623 -0.00014162 0)
(7.24102e-05 1.62825e-06 0)
(0.0001029 0.000101808 0)
(4.21404e-05 9.97907e-05 0)
(-0.0317126 -0.000153633 0)
(-0.0314615 -0.000489014 0)
(-0.0309527 -0.000819044 0)
(-0.0301922 -0.00113896 0)
(-0.0291899 -0.00144393 0)
(-0.0279594 -0.00172904 0)
(-0.0265179 -0.00198939 0)
(-0.0248865 -0.00222008 0)
(-0.0230899 -0.00241632 0)
(-0.0211561 -0.00257349 0)
(-0.0191169 -0.00268722 0)
(-0.0170066 -0.0027535 0)
(-0.0148626 -0.00276877 0)
(-0.0127244 -0.00273009 0)
(-0.010633 -0.0026353 0)
(-0.00863049 -0.00248323 0)
(-0.00675877 -0.00227401 0)
(-0.00505837 -0.00200958 0)
(-0.00356687 -0.00169435 0)
(-0.00231666 -0.00133648 0)
(-0.00133195 -0.000949837 0)
(-0.000624668 -0.00055746 0)
(-0.00018875 -0.000196592 0)
(7.07668e-06 7.27573e-05 0)
(2.53489e-05 0.000146437 0)
(-0.0426857 -0.000295943 0)
(-0.0423548 -0.00093437 0)
(-0.0416858 -0.00156236 0)
(-0.040687 -0.00217087 0)
(-0.0393711 -0.00275072 0)
(-0.0377559 -0.00329266 0)
(-0.0358641 -0.00378745 0)
(-0.0337229 -0.00422592 0)
(-0.0313643 -0.00459916 0)
(-0.0288249 -0.0048986 0)
(-0.0261453 -0.00511622 0)
(-0.0233699 -0.00524474 0)
(-0.0205464 -0.00527784 0)
(-0.0177252 -0.00521047 0)
(-0.0149585 -0.00503915 0)
(-0.0122993 -0.00476244 0)
(-0.00979993 -0.00438149 0)
(-0.00751091 -0.00390094 0)
(-0.00547851 -0.00333009 0)
(-0.00374246 -0.00268476 0)
(-0.00233283 -0.00199023 0)
(-0.0012658 -0.00128563 0)
(-0.000538633 -0.000629862 0)
(-0.00012976 -0.000110786 0)
(-5.95605e-07 0.000130209 0)
(-0.0529713 -0.000474653 0)
(-0.0525697 -0.00149076 0)
(-0.0517588 -0.00249003 0)
(-0.0505484 -0.00345814 0)
(-0.0489538 -0.0043806 0)
(-0.0469965 -0.00524281 0)
(-0.0447034 -0.00603024 0)
(-0.0421072 -0.00672855 0)
(-0.0392461 -0.00732381 0)
(-0.0361634 -0.00780275 0)
(-0.0329074 -0.00815299 0)
(-0.0295307 -0.00836342 0)
(-0.0260898 -0.00842456 0)
(-0.0226441 -0.00832901 0)
(-0.0192548 -0.00807196 0)
(-0.0159839 -0.00765195 0)
(-0.0128928 -0.00707167 0)
(-0.0100401 -0.00633919 0)
(-0.00747986 -0.00546963 0)
(-0.00525886 -0.00448744 0)
(-0.00341391 -0.00342986 0)
(-0.00196771 -0.00235176 0)
(-0.000924829 -0.00133159 0)
(-0.000279951 -0.000480091 0)
(-2.81772e-05 3.54327e-05 0)
(-0.0627016 -0.000685501 0)
(-0.0622377 -0.00214682 0)
(-0.0613002 -0.00358381 0)
(-0.0599003 -0.00497602 0)
(-0.0580555 -0.00630278 0)
(-0.0557901 -0.00754335 0)
(-0.0531349 -0.00867708 0)
(-0.0501268 -0.00968368 0)
(-0.0468091 -0.0105435 0)
(-0.0432311 -0.0112379 0)
(-0.0394472 -0.0117495 0)
(-0.0355172 -0.0120629 0)
(-0.0315047 -0.0121652 0)
(-0.0274766 -0.0120463 0)
(-0.0235021 -0.0117001 0)
(-0.0196509 -0.0111252 0)
(-0.0159923 -0.010326 0)
(-0.0125924 -0.00931453 0)
(-0.00951281 -0.00811188 0)
(-0.00680787 -0.00675127 0)
(-0.00452236 -0.00528146 0)
(-0.00268776 -0.00377158 0)
(-0.00131892 -0.00231657 0)
(-0.000430434 -0.00104464 0)
(-5.45868e-05 -0.000139211 0)
(-0.0719897 -0.000923975 0)
(-0.071471 -0.00289198 0)
(-0.07042 -0.0048273 0)
(-0.0688489 -0.00670264 0)
(-0.066777 -0.00849047 0)
(-0.064231 -0.0101632 0)
(-0.0612444 -0.0116933 0)
(-0.0578581 -0.013054 0)
(-0.0541194 -0.0142192 0)
(-0.0500825 -0.0151643 0)
(-0.0458072 -0.0158665 0)
(-0.0413591 -0.0163057 0)
(-0.0368079 -0.016465 0)
(-0.0322274 -0.0163315 0)
(-0.0276935 -0.0158975 0)
(-0.0232833 -0.0151616 0)
(-0.019073 -0.0141301 0)
(-0.0151366 -0.0128186 0)
(-0.0115434 -0.0112541 0)
(-0.00835598 -0.00947803 0)
(-0.00562855 -0.00754964 0)
(-0.00340311 -0.00555028 0)
(-0.00170679 -0.00358815 0)
(-0.000575662 -0.00180416 0)
(-7.89809e-05 -0.000390793 0)
(-0.0809309 -0.00118535 0)
(-0.0803644 -0.00371651 0)
(-0.0792112 -0.00620598 0)
(-0.0774843 -0.00861909 0)
(-0.0752043 -0.0109208 0)
(-0.0723996 -0.0130761 0)
(-0.0691063 -0.0150502 0)
(-0.065368 -0.0168089 0)
(-0.0612357 -0.0183194 0)
(-0.0567674 -0.0195504 0)
(-0.0520276 -0.0204733 0)
(-0.0470868 -0.0210627 0)
(-0.0420205 -0.0212973 0)
(-0.0369081 -0.0211612 0)
(-0.0318322 -0.0206447 0)
(-0.0268766 -0.0197461 0)
(-0.0221248 -0.0184731 0)
(-0.0176585 -0.0168445 0)
(-0.0135553 -0.0148927 0)
(-0.00988712 -0.0126666 0)
(-0.00671864 -0.0102341 0)
(-0.00410373 -0.00768694 0)
(-0.00208296 -0.00514362 0)
(-0.000714028 -0.00275402 0)
(-0.000101348 -0.000715228 0)
(-0.0896043 -0.00146473 0)
(-0.0889968 -0.00461162 0)
(-0.0877516 -0.00770745 0)
(-0.0858821 -0.0107097 0)
(-0.0834099 -0.0135753 0)
(-0.0803646 -0.0162613 0)
(-0.0767843 -0.0187251 0)
(-0.0727148 -0.0209249 0)
(-0.0682099 -0.0228201 0)
(-0.0633311 -0.0243727 0)
(-0.0581466 -0.0255475 0)
(-0.0527315 -0.0263133 0)
(-0.0471662 -0.0266441 0)
(-0.0415358 -0.0265201 0)
(-0.0359289 -0.0259295 0)
(-0.0304362 -0.0248695 0)
(-0.0251485 -0.0233486 0)
(-0.0201557 -0.0213883 0)
(-0.0155445 -0.0190256 0)
(-0.0113968 -0.0163152 0)
(-0.00778892 -0.0133328 0)
(-0.00478737 -0.0101781 0)
(-0.00244674 -0.00697783 0)
(-0.000845879 -0.00388818 0)
(-0.000122004 -0.00110849 0)
(-0.0980746 -0.00175699 0)
(-0.0974329 -0.00556913 0)
(-0.0961051 -0.00932071 0)
(-0.0941048 -0.0129609 0)
(-0.0914541 -0.0164384 0)
(-0.0881836 -0.0197018 0)
(-0.0843325 -0.0227002 0)
(-0.0799485 -0.0253835 0)
(-0.0750878 -0.0277033 0)
(-0.0698143 -0.029614 0)
(-0.0642 -0.0310732 0)
(-0.0583236 -0.0320435 0)
(-0.0522704 -0.0324934 0)
(-0.0461307 -0.0323988 0)
(-0.0399993 -0.0317447 0)
(-0.0339737 -0.0305268 0)
(-0.0281525 -0.0287538 0)
(-0.0226341 -0.0264487 0)
(-0.017515 -0.0236518 0)
(-0.0128882 -0.0204228 0)
(-0.0088419 -0.0168433 0)
(-0.00545627 -0.0130199 0)
(-0.00280006 -0.00908546 0)
(-0.000972469 -0.00520098 0)
(-0.00014136 -0.00156718 0)
(-0.106393 -0.00205662 0)
(-0.105724 -0.00658109 0)
(-0.104322 -0.0110356 0)
(-0.102202 -0.0153607 0)
(-0.0993856 -0.0194966 0)
(-0.0959033 -0.023383 0)
(-0.0917957 -0.0269603 0)
(-0.0871115 -0.0301698 0)
(-0.0819085 -0.0329546 0)
(-0.0762533 -0.0352608 0)
(-0.0702204 -0.0370385 0)
(-0.0638924 -0.0382433 0)
(-0.0573588 -0.0388373 0)
(-0.0507152 -0.0387915 0)
(-0.0440625 -0.0380868 0)
(-0.0375051 -0.0367166 0)
(-0.03115 -0.0346884 0)
(-0.0251048 -0.0320259 0)
(-0.0194761 -0.0287717 0)
(-0.0143687 -0.0249891 0)
(-0.00988377 -0.0207645 0)
(-0.00611524 -0.0162095 0)
(-0.00314615 -0.0114624 0)
(-0.00109543 -0.00668804 0)
(-0.000159835 -0.00208881 0)
(-0.114597 -0.00235768 0)
(-0.113908 -0.00763946 0)
(-0.112442 -0.0128422 0)
(-0.110213 -0.0178978 0)
(-0.107242 -0.0227374 0)
(-0.103561 -0.0272918 0)
(-0.0992096 -0.0314922 0)
(-0.0942381 -0.0352708 0)
(-0.0887052 -0.0385617 0)
(-0.0826791 -0.0413023 0)
(-0.0762372 -0.0434343 0)
(-0.069465 -0.0449054 0)
(-0.0624563 -0.0456709 0)
(-0.055312 -0.0456954 0)
(-0.0481389 -0.044955 0)
(-0.0410489 -0.0434396 0)
(-0.0341575 -0.0411544 0)
(-0.027582 -0.0381227 0)
(-0.0214401 -0.034388 0)
(-0.0158487 -0.030016 0)
(-0.0109228 -0.0250966 0)
(-0.00677037 -0.0197459 0)
(-0.00348888 -0.0141063 0)
(-0.00121653 -0.00834678 0)
(-0.000177824 -0.00267185 0)
(-0.122712 -0.00265374 0)
(-0.122011 -0.00873589 0)
(-0.12049 -0.0147306 0)
(-0.118163 -0.0205608 0)
(-0.11505 -0.0261485 0)
(-0.111183 -0.0314154 0)
(-0.106601 -0.0362832 0)
(-0.101355 -0.0406744 0)
(-0.0955038 -0.0445137 0)
(-0.0891175 -0.047729 0)
(-0.0822752 -0.0502529 0)
(-0.0750656 -0.0520243 0)
(-0.0675863 -0.0529906 0)
(-0.0599431 -0.0531092 0)
(-0.0522493 -0.0523502 0)
(-0.0446244 -0.0506983 0)
(-0.0371925 -0.0481556 0)
(-0.0300815 -0.0447435 0)
(-0.0234207 -0.0405051 0)
(-0.0173399 -0.0355074 0)
(-0.0119682 -0.0298427 0)
(-0.00742832 -0.0236306 0)
(-0.00383232 -0.0170176 0)
(-0.00133749 -0.0101766 0)
(-0.000195685 -0.00331572 0)
(-0.130751 -0.00293785 0)
(-0.130046 -0.00986153 0)
(-0.12848 -0.0166901 0)
(-0.126067 -0.0233378 0)
(-0.122825 -0.0297173 0)
(-0.118785 -0.0357408 0)
(-0.113987 -0.0413202 0)
(-0.10848 -0.0463681 0)
(-0.102323 -0.0507991 0)
(-0.0955878 -0.0545311 0)
(-0.0883545 -0.0574865 0)
(-0.0807145 -0.0595946 0)
(-0.072769 -0.0607936 0)
(-0.0646289 -0.0610326 0)
(-0.0564136 -0.060274 0)
(-0.0482505 -0.0584966 0)
(-0.040273 -0.0556975 0)
(-0.0326198 -0.0518947 0)
(-0.0254324 -0.0471298 0)
(-0.0188544 -0.0414696 0)
(-0.0130295 -0.0350082 0)
(-0.00809592 -0.0278678 0)
(-0.00418051 -0.0201988 0)
(-0.00146001 -0.0121788 0)
(-0.000213745 -0.00402075 0)
(-0.138714 -0.0032025 0)
(-0.138013 -0.0110068 0)
(-0.136414 -0.0187095 0)
(-0.133927 -0.026216 0)
(-0.130571 -0.0334299 0)
(-0.126374 -0.0402535 0)
(-0.121375 -0.0465889 0)
(-0.115622 -0.0523383 0)
(-0.109174 -0.0574056 0)
(-0.102103 -0.0616977 0)
(-0.0944893 -0.0651264 0)
(-0.0864273 -0.0676101 0)
(-0.0780214 -0.0690765 0)
(-0.0693869 -0.0694648 0)
(-0.0606498 -0.0687288 0)
(-0.0519452 -0.0668392 0)
(-0.0434162 -0.0637866 0)
(-0.0352128 -0.0595843 0)
(-0.0274896 -0.0542708 0)
(-0.0204043 -0.0479115 0)
(-0.0141164 -0.0406012 0)
(-0.00877984 -0.0324644 0)
(-0.00453738 -0.0236554 0)
(-0.00158567 -0.0143568 0)
(-0.000232302 -0.00478815 0)
(-0.146587 -0.00343972 0)
(-0.1459 -0.0121612 0)
(-0.14428 -0.0207761 0)
(-0.141734 -0.029181 0)
(-0.13828 -0.0372704 0)
(-0.133943 -0.0449371 0)
(-0.128761 -0.0520727 0)
(-0.12278 -0.0585688 0)
(-0.116059 -0.0643182 0)
(-0.108667 -0.0692159 0)
(-0.100687 -0.0731619 0)
(-0.0922144 -0.0760628 0)
(-0.0833558 -0.0778343 0)
(-0.0742314 -0.0784044 0)
(-0.0649732 -0.0777161 0)
(-0.0557244 -0.0757305 0)
(-0.046638 -0.0724301 0)
(-0.0378758 -0.0678216 0)
(-0.0296058 -0.0619387 0)
(-0.0220012 -0.0548443 0)
(-0.0152378 -0.0466327 0)
(-0.00948655 -0.0374303 0)
(-0.00490668 -0.0273952 0)
(-0.00171598 -0.0167159 0)
(-0.000251628 -0.00561991 0)
(-0.154342 -0.00364103 0)
(-0.15368 -0.0133133 0)
(-0.152052 -0.0228758 0)
(-0.149464 -0.0322165 0)
(-0.145929 -0.041221 0)
(-0.141473 -0.0497724 0)
(-0.13613 -0.057752 0)
(-0.129943 -0.0650405 0)
(-0.122969 -0.0715185 0)
(-0.115277 -0.0770691 0)
(-0.106949 -0.0815791 0)
(-0.0980795 -0.0849417 0)
(-0.0887795 -0.0870597 0)
(-0.0791723 -0.0878477 0)
(-0.069396 -0.0872362 0)
(-0.0596017 -0.0851747 0)
(-0.0499525 -0.0816356 0)
(-0.0406225 -0.0766168 0)
(-0.031794 -0.0701457 0)
(-0.0236563 -0.0622812 0)
(-0.0164026 -0.053116 0)
(-0.0102222 -0.0427778 0)
(-0.00529202 -0.0314285 0)
(-0.00185236 -0.0192631 0)
(-0.000271979 -0.0065188 0)
(-0.161937 -0.00379765 0)
(-0.161312 -0.0144508 0)
(-0.15969 -0.0249928 0)
(-0.157078 -0.0353038 0)
(-0.153485 -0.0452605 0)
(-0.148934 -0.0547367 0)
(-0.143454 -0.0636033 0)
(-0.137087 -0.0717296 0)
(-0.129887 -0.0789841 0)
(-0.121919 -0.0852364 0)
(-0.113265 -0.0903595 0)
(-0.104019 -0.0942321 0)
(-0.0942933 -0.0967417 0)
(-0.0842145 -0.0977881 0)
(-0.0739262 -0.0972871 0)
(-0.0635874 -0.0951744 0)
(-0.0533715 -0.0914097 0)
(-0.0434651 -0.0859804 0)
(-0.0340658 -0.0789053 0)
(-0.0253797 -0.0702375 0)
(-0.0176191 -0.060067 0)
(-0.0109927 -0.0485218 0)
(-0.00569681 -0.0357679 0)
(-0.00199616 -0.0220073 0)
(-0.000293601 -0.00748828 0)
(-0.169314 -0.00390057 0)
(-0.168736 -0.0155602 0)
(-0.167138 -0.0271096 0)
(-0.164522 -0.0384216 0)
(-0.160896 -0.0493646 0)
(-0.156278 -0.0598033 0)
(-0.150692 -0.0695984 0)
(-0.144177 -0.0786075 0)
(-0.136782 -0.0866866 0)
(-0.12857 -0.0936913 0)
(-0.119618 -0.0994795 0)
(-0.110022 -0.103914 0)
(-0.0998913 -0.106865 0)
(-0.0893571 -0.108215 0)
(-0.0785674 -0.107864 0)
(-0.0676884 -0.10573 0)
(-0.0569041 -0.101758 0)
(-0.046414 -0.0959229 0)
(-0.0364315 -0.0882316 0)
(-0.0271811 -0.0787299 0)
(-0.0188951 -0.0675033 0)
(-0.0118038 -0.0546795 0)
(-0.00612438 -0.0404282 0)
(-0.00214873 -0.024959 0)
(-0.00031673 -0.00853254 0)
(-0.176398 -0.00394079 0)
(-0.175879 -0.016627 0)
(-0.174322 -0.0292065 0)
(-0.171726 -0.0415455 0)
(-0.168096 -0.0535049 0)
(-0.163442 -0.0649407 0)
(-0.157787 -0.0757034 0)
(-0.151162 -0.0856394 0)
(-0.143611 -0.0945914 0)
(-0.135193 -0.1024 0)
(-0.12598 -0.108908 0)
(-0.116065 -0.113959 0)
(-0.105559 -0.117406 0)
(-0.0945925 -0.119112 0)
(-0.0833175 -0.118956 0)
(-0.0719075 -0.116838 0)
(-0.0605565 -0.112685 0)
(-0.0494775 -0.106453 0)
(-0.0389004 -0.0981389 0)
(-0.029069 -0.0877762 0)
(-0.020238 -0.0754447 0)
(-0.0126607 -0.0612705 0)
(-0.00657798 -0.0454263 0)
(-0.00231136 -0.0281301 0)
(-0.000341605 -0.0096564 0)
(-0.183094 -0.00390956 0)
(-0.182646 -0.0176358 0)
(-0.18115 -0.0312618 0)
(-0.178601 -0.044648 0)
(-0.174997 -0.0576487 0)
(-0.170347 -0.0701118 0)
(-0.164664 -0.0818783 0)
(-0.157975 -0.0927832 0)
(-0.150315 -0.102656 0)
(-0.141737 -0.111322 0)
(-0.132309 -0.118607 0)
(-0.122119 -0.124335 0)
(-0.111274 -0.128338 0)
(-0.0999056 -0.130457 0)
(-0.0881687 -0.130549 0)
(-0.0762429 -0.128491 0)
(-0.0643316 -0.124189 0)
(-0.0526616 -0.11758 0)
(-0.04148 -0.108641 0)
(-0.0310516 -0.0973947 0)
(-0.0216548 -0.0839121 0)
(-0.0135689 -0.0683159 0)
(-0.00706085 -0.0507813 0)
(-0.00248538 -0.0315346 0)
(-0.000368472 -0.0108654 0)
(-0.189289 -0.00379872 0)
(-0.188924 -0.0185706 0)
(-0.18751 -0.0332517 0)
(-0.185035 -0.0476981 0)
(-0.181496 -0.0617585 0)
(-0.176892 -0.0752736 0)
(-0.171231 -0.0880757 0)
(-0.16453 -0.0999888 0)
(-0.156818 -0.110829 0)
(-0.148138 -0.120406 0)
(-0.13855 -0.128526 0)
(-0.128137 -0.134995 0)
(-0.117001 -0.13962 0)
(-0.105272 -0.142218 0)
(-0.0931062 -0.142619 0)
(-0.0806872 -0.140676 0)
(-0.0682283 -0.136267 0)
(-0.0559697 -0.129306 0)
(-0.0441765 -0.11975 0)
(-0.0331358 -0.107604 0)
(-0.0231524 -0.0929279 0)
(-0.0145337 -0.0758391 0)
(-0.00757631 -0.0565141 0)
(-0.00267219 -0.0351876 0)
(-0.000397593 -0.0121658 0)
(-0.194847 -0.00360107 0)
(-0.194578 -0.0194146 0)
(-0.193266 -0.0351504 0)
(-0.190899 -0.0506612 0)
(-0.187465 -0.0657917 0)
(-0.182957 -0.0803767 0)
(-0.177374 -0.0942405 0)
(-0.170724 -0.107197 0)
(-0.163026 -0.119048 0)
(-0.154311 -0.12959 0)
(-0.144633 -0.138607 0)
(-0.134062 -0.145884 0)
(-0.122696 -0.151203 0)
(-0.110659 -0.154353 0)
(-0.0981069 -0.155135 0)
(-0.0852274 -0.15337 0)
(-0.0722414 -0.148907 0)
(-0.0594024 -0.141632 0)
(-0.0469944 -0.131476 0)
(-0.0353283 -0.118422 0)
(-0.0247372 -0.102515 0)
(-0.0155604 -0.0838647 0)
(-0.00812783 -0.0626475 0)
(-0.00287325 -0.0391062 0)
(-0.000429251 -0.0135645 0)
(-0.199612 -0.00331079 0)
(-0.199448 -0.0201512 0)
(-0.198263 -0.0369301 0)
(-0.196037 -0.0534992 0)
(-0.192754 -0.0697004 0)
(-0.188397 -0.0853643 0)
(-0.182957 -0.100309 0)
(-0.176431 -0.114337 0)
(-0.168823 -0.127242 0)
(-0.160156 -0.138799 0)
(-0.150468 -0.148776 0)
(-0.13982 -0.156932 0)
(-0.128298 -0.163023 0)
(-0.11602 -0.166807 0)
(-0.103139 -0.168051 0)
(-0.0898431 -0.166542 0)
(-0.0763605 -0.162092 0)
(-0.0629574 -0.154553 0)
(-0.0499366 -0.143825 0)
(-0.0376347 -0.129865 0)
(-0.0264158 -0.112697 0)
(-0.0166548 -0.0924192 0)
(-0.00871915 -0.0692065 0)
(-0.00309019 -0.043309 0)
(-0.000463769 -0.0150693 0)
(-0.2034 -0.00292402 0)
(-0.203352 -0.0207636 0)
(-0.202315 -0.0385615 0)
(-0.200268 -0.0561702 0)
(-0.197185 -0.0734312 0)
(-0.193042 -0.0901725 0)
(-0.187819 -0.106207 0)
(-0.181498 -0.121331 0)
(-0.174073 -0.135322 0)
(-0.165548 -0.147945 0)
(-0.155947 -0.158944 0)
(-0.145317 -0.168055 0)
(-0.133731 -0.175002 0)
(-0.121297 -0.179512 0)
(-0.108159 -0.181312 0)
(-0.094506 -0.180149 0)
(-0.0805699 -0.175794 0)
(-0.0666286 -0.168057 0)
(-0.0530043 -0.1568 0)
(-0.0400602 -0.141946 0)
(-0.0281951 -0.123496 0)
(-0.0178231 -0.10153 0)
(-0.00935444 -0.076218 0)
(-0.00332487 -0.0478168 0)
(-0.000501517 -0.0166889 0)
(-0.206003 -0.00243933 0)
(-0.206078 -0.0212358 0)
(-0.205214 -0.0400139 0)
(-0.203383 -0.0586294 0)
(-0.200555 -0.0769255 0)
(-0.196695 -0.0947299 0)
(-0.19177 -0.111853 0)
(-0.185749 -0.128084 0)
(-0.178609 -0.143192 0)
(-0.170337 -0.156924 0)
(-0.160939 -0.169007 0)
(-0.150441 -0.179148 0)
(-0.138902 -0.187044 0)
(-0.126414 -0.192379 0)
(-0.113112 -0.194842 0)
(-0.0991782 -0.194132 0)
(-0.0848468 -0.189971 0)
(-0.0704058 -0.18212 0)
(-0.0561962 -0.170395 0)
(-0.0426096 -0.154678 0)
(-0.030082 -0.134935 0)
(-0.0190719 -0.111226 0)
(-0.0100385 -0.0837113 0)
(-0.00357942 -0.0526524 0)
(-0.000542934 -0.0184329 0)
(-0.207187 -0.00185836 0)
(-0.20739 -0.021553 0)
(-0.20672 -0.041256 0)
(-0.205147 -0.0608288 0)
(-0.202632 -0.0801192 0)
(-0.199129 -0.0989573 0)
(-0.194593 -0.117153 0)
(-0.188977 -0.134492 0)
(-0.182239 -0.150734 0)
(-0.174347 -0.165615 0)
(-0.165283 -0.17884 0)
(-0.155054 -0.190091 0)
(-0.143696 -0.19903 0)
(-0.13128 -0.205302 0)
(-0.117927 -0.208548 0)
(-0.10381 -0.208415 0)
(-0.0891606 -0.204567 0)
(-0.0742738 -0.196709 0)
(-0.059509 -0.184597 0)
(-0.0452869 -0.168065 0)
(-0.0320842 -0.147035 0)
(-0.0204091 -0.121538 0)
(-0.0107768 -0.091718 0)
(-0.00385642 -0.0578411 0)
(-0.000588554 -0.0203123 0)
(-0.206687 -0.00118637 0)
(-0.20702 -0.0217021 0)
(-0.206567 -0.042256 0)
(-0.205292 -0.0627182 0)
(-0.20315 -0.0829437 0)
(-0.200085 -0.102768 0)
(-0.196036 -0.122005 0)
(-0.190941 -0.140437 0)
(-0.184737 -0.157821 0)
(-0.177369 -0.173879 0)
(-0.168794 -0.188298 0)
(-0.158992 -0.200736 0)
(-0.147971 -0.210818 0)
(-0.13578 -0.218148 0)
(-0.122517 -0.222312 0)
(-0.108339 -0.222899 0)
(-0.0934707 -0.219508 0)
(-0.0782115 -0.211773 0)
(-0.0629363 -0.199383 0)
(-0.0480957 -0.182108 0)
(-0.0342102 -0.159815 0)
(-0.0218438 -0.132495 0)
(-0.0115762 -0.100273 0)
(-0.00415902 -0.0634112 0)
(-0.000639038 -0.0223396 0)
(-0.20421 -0.000432827 0)
(-0.204672 -0.0216728 0)
(-0.204455 -0.0429831 0)
(-0.20352 -0.0642458 0)
(-0.201813 -0.0853267 0)
(-0.19927 -0.106071 0)
(-0.195816 -0.126296 0)
(-0.191368 -0.14579 0)
(-0.185844 -0.164306 0)
(-0.179161 -0.181557 0)
(-0.171249 -0.197216 0)
(-0.162056 -0.210914 0)
(-0.151558 -0.222241 0)
(-0.139773 -0.230756 0)
(-0.126769 -0.23599 0)
(-0.112683 -0.237461 0)
(-0.0977242 -0.234695 0)
(-0.08219 -0.227244 0)
(-0.0664681 -0.214715 0)
(-0.0510388 -0.196797 0)
(-0.0364696 -0.173289 0)
(-0.0233871 -0.14413 0)
(-0.012445 -0.109413 0)
(-0.00449113 -0.0693947 0)
(-0.000695221 -0.0245289 0)
(-0.199436 0.000388125 0)
(-0.20002 -0.0214575 0)
(-0.200056 -0.0434078 0)
(-0.1995 -0.0653596 0)
(-0.198293 -0.087193 0)
(-0.19636 -0.108766 0)
(-0.193611 -0.129906 0)
(-0.189947 -0.150409 0)
(-0.18526 -0.170028 0)
(-0.179441 -0.188473 0)
(-0.172388 -0.205403 0)
(-0.164012 -0.220426 0)
(-0.154253 -0.233101 0)
(-0.143087 -0.242936 0)
(-0.130549 -0.249402 0)
(-0.116742 -0.251945 0)
(-0.101853 -0.250002 0)
(-0.0861704 -0.24303 0)
(-0.0700895 -0.230537 0)
(-0.0541183 -0.212112 0)
(-0.0388738 -0.187469 0)
(-0.0250523 -0.156475 0)
(-0.0133935 -0.11918 0)
(-0.00485774 -0.0758281 0)
(-0.000758177 -0.0268968 0)
(-0.192012 0.00125735 0)
(-0.192709 -0.021053 0)
(-0.19301 -0.0435031 0)
(-0.192871 -0.0660082 0)
(-0.192226 -0.0884664 0)
(-0.190992 -0.110752 0)
(-0.189065 -0.132708 0)
(-0.186327 -0.154141 0)
(-0.182647 -0.174811 0)
(-0.177887 -0.194428 0)
(-0.171909 -0.212644 0)
(-0.164585 -0.229048 0)
(-0.15581 -0.243165 0)
(-0.145515 -0.254459 0)
(-0.133687 -0.262335 0)
(-0.120386 -0.266158 0)
(-0.105768 -0.265267 0)
(-0.0901009 -0.259009 0)
(-0.073779 -0.24677 0)
(-0.0573346 -0.228019 0)
(-0.0414358 -0.202358 0)
(-0.0268562 -0.169563 0)
(-0.014435 -0.129621 0)
(-0.0052653 -0.0827535 0)
(-0.00082931 -0.0294628 0)
(-0.181562 0.0021506 0)
(-0.182355 -0.0204601 0)
(-0.18293 -0.0432459 0)
(-0.18324 -0.0661433 0)
(-0.183217 -0.0890718 0)
(-0.182768 -0.111926 0)
(-0.181779 -0.13457 0)
(-0.180114 -0.156826 0)
(-0.177619 -0.178467 0)
(-0.174126 -0.199209 0)
(-0.169459 -0.218703 0)
(-0.163448 -0.236524 0)
(-0.155937 -0.252169 0)
(-0.146801 -0.265058 0)
(-0.135972 -0.27453 0)
(-0.123454 -0.279863 0)
(-0.109356 -0.280288 0)
(-0.093912 -0.275021 0)
(-0.0775055 -0.263306 0)
(-0.0606855 -0.244463 0)
(-0.0441707 -0.217951 0)
(-0.0288196 -0.183425 0)
(-0.0155864 -0.140787 0)
(-0.00572222 -0.0902204 0)
(-0.000910488 -0.0322503 0)
(-0.16768 0.00303869 0)
(-0.16855 -0.0196852 0)
(-0.169401 -0.042618 0)
(-0.170188 -0.0657208 0)
(-0.17084 -0.0889376 0)
(-0.17126 -0.112189 0)
(-0.171322 -0.135361 0)
(-0.170876 -0.1583 0)
(-0.169747 -0.180798 0)
(-0.167736 -0.202587 0)
(-0.164633 -0.22332 0)
(-0.160219 -0.242569 0)
(-0.154282 -0.25981 0)
(-0.146637 -0.274422 0)
(-0.137144 -0.285681 0)
(-0.125739 -0.292773 0)
(-0.112466 -0.29481 0)
(-0.0975095 -0.290861 0)
(-0.0812241 -0.279999 0)
(-0.0641643 -0.261363 0)
(-0.0470959 -0.234229 0)
(-0.0309686 -0.198093 0)
(-0.0168699 -0.152737 0)
(-0.00623973 -0.0982876 0)
(-0.00100423 -0.0352879 0)
(-0.149942 0.0038881 0)
(-0.150863 -0.0187397 0)
(-0.151986 -0.0416078 0)
(-0.15327 -0.0647037 0)
(-0.154642 -0.0879995 0)
(-0.156003 -0.111444 0)
(-0.157222 -0.134952 0)
(-0.158136 -0.1584 0)
(-0.15855 -0.181605 0)
(-0.158243 -0.204321 0)
(-0.156965 -0.226218 0)
(-0.15445 -0.246872 0)
(-0.150429 -0.265749 0)
(-0.144644 -0.282194 0)
(-0.136877 -0.295426 0)
(-0.126977 -0.304539 0)
(-0.114903 -0.308517 0)
(-0.100765 -0.306264 0)
(-0.084869 -0.296654 0)
(-0.0677562 -0.278601 0)
(-0.0502301 -0.251153 0)
(-0.0333361 -0.213593 0)
(-0.0183146 -0.165538 0)
(-0.00683291 -0.107026 0)
(-0.00111403 -0.0386109 0)
(-0.127904 0.00466207 0)
(-0.128847 -0.0176406 0)
(-0.130233 -0.040211 0)
(-0.132022 -0.0630647 0)
(-0.134147 -0.0862035 0)
(-0.13651 -0.109608 0)
(-0.138975 -0.133227 0)
(-0.141375 -0.15697 0)
(-0.143502 -0.180689 0)
(-0.145111 -0.20417 0)
(-0.145921 -0.22711 0)
(-0.145621 -0.249101 0)
(-0.14388 -0.269612 0)
(-0.140365 -0.287971 0)
(-0.134765 -0.303345 0)
(-0.126828 -0.314744 0)
(-0.116404 -0.32102 0)
(-0.103501 -0.320894 0)
(-0.088343 -0.31301 0)
(-0.0714323 -0.296012 0)
(-0.0535923 -0.268656 0)
(-0.0359631 -0.229946 0)
(-0.0199587 -0.179269 0)
(-0.00752242 -0.116523 0)
(-0.00124475 -0.042264 0)
(-0.101111 0.00532221 0)
(-0.102046 -0.0164104 0)
(-0.103676 -0.0384325 0)
(-0.105969 -0.0607883 0)
(-0.108865 -0.0835109 0)
(-0.112269 -0.106614 0)
(-0.116051 -0.130085 0)
(-0.120042 -0.153871 0)
(-0.124027 -0.177867 0)
(-0.127748 -0.201899 0)
(-0.130899 -0.225705 0)
(-0.133127 -0.248909 0)
(-0.134045 -0.271 0)
(-0.13324 -0.291304 0)
(-0.130302 -0.308958 0)
(-0.124857 -0.322896 0)
(-0.116622 -0.331841 0)
(-0.105469 -0.334323 0)
(-0.0915009 -0.328723 0)
(-0.075139 -0.313363 0)
(-0.0571972 -0.28663 0)
(-0.0388997 -0.247159 0)
(-0.0218534 -0.194015 0)
(-0.00833695 -0.126888 0)
(-0.00140344 -0.0463049 0)
(-0.0691092 0.00583077 0)
(-0.0700021 -0.0150757 0)
(-0.0718519 -0.0362867 0)
(-0.0746349 -0.0578744 0)
(-0.0782989 -0.0799026 0)
(-0.08276 -0.10242 0)
(-0.0878979 -0.125453 0)
(-0.09355 -0.148992 0)
(-0.0995063 -0.17298 0)
(-0.105503 -0.197295 0)
(-0.11122 -0.221726 0)
(-0.116274 -0.24595 0)
(-0.120226 -0.269494 0)
(-0.12259 -0.291707 0)
(-0.122849 -0.311721 0)
(-0.120498 -0.328417 0)
(-0.11509 -0.340402 0)
(-0.106322 -0.346011 0)
(-0.0941235 -0.34334 0)
(-0.0787809 -0.330327 0)
(-0.061048 -0.304904 0)
(-0.0422059 -0.265216 0)
(-0.0240671 -0.209877 0)
(-0.0093171 -0.138257 0)
(-0.00160051 -0.0508096 0)
(-0.0314498 0.00615352 0)
(-0.0322702 -0.0136669 0)
(-0.0343085 -0.0337988 0)
(-0.0375508 -0.0543403 0)
(-0.0419577 -0.0753844 0)
(-0.0474604 -0.0970137 0)
(-0.0539548 -0.119293 0)
(-0.0612951 -0.14226 0)
(-0.0692854 -0.16591 0)
(-0.0776714 -0.190182 0)
(-0.0861311 -0.214929 0)
(-0.094268 -0.239896 0)
(-0.101606 -0.264677 0)
(-0.107593 -0.288672 0)
(-0.111613 -0.311041 0)
(-0.113016 -0.330645 0)
(-0.111175 -0.346008 0)
(-0.105563 -0.355281 0)
(-0.0958774 -0.35626 0)
(-0.0821908 -0.346448 0)
(-0.0651204 -0.323214 0)
(-0.0459492 -0.284059 0)
(-0.0266909 -0.226963 0)
(-0.0105215 -0.150807 0)
(-0.00185189 -0.0558806 0)
(0.012293 0.00626313 0)
(0.0115721 -0.012216 0)
(0.00938245 -0.0310051 0)
(0.00572677 -0.0502239 0)
(0.00062876 -0.0699915 0)
(-0.00586258 -0.0904213 0)
(-0.0136668 -0.111616 0)
(-0.0226641 -0.133658 0)
(-0.0326855 -0.1566 0)
(-0.0435013 -0.180445 0)
(-0.054808 -0.205124 0)
(-0.0662147 -0.230468 0)
(-0.0772311 -0.25616 0)
(-0.0872603 -0.28169 0)
(-0.0956003 -0.306285 0)
(-0.101463 -0.328841 0)
(-0.104021 -0.347841 0)
(-0.102487 -0.361294 0)
(-0.096254 -0.366702 0)
(-0.0850803 -0.36109 0)
(-0.0693328 -0.341153 0)
(-0.0501964 -0.303554 0)
(-0.0298462 -0.245382 0)
(-0.0120364 -0.164762 0)
(-0.00218287 -0.06166 0)
(0.0625087 0.00614293 0)
(0.0619073 -0.0107551 0)
(0.0596078 -0.0279522 0)
(0.0556013 -0.0455853 0)
(0.0498934 -0.0637935 0)
(0.042509 -0.0827163 0)
(0.0334984 -0.102489 0)
(0.0229458 -0.123238 0)
(0.0109801 -0.145069 0)
(-0.00221094 -0.168055 0)
(-0.016364 -0.19221 0)
(-0.0311207 -0.217465 0)
(-0.0460073 -0.243621 0)
(-0.0604144 -0.27029 0)
(-0.0735844 -0.296822 0)
(-0.0846119 -0.322206 0)
(-0.0924711 -0.344962 0)
(-0.0960876 -0.363026 0)
(-0.0944744 -0.373648 0)
(-0.086957 -0.373368 0)
(-0.0734896 -0.358099 0)
(-0.0549912 -0.323438 0)
(-0.0336908 -0.265225 0)
(-0.0139917 -0.180415 0)
(-0.00263522 -0.0683503 0)
(0.119532 0.0057906 0)
(0.11906 -0.00931381 0)
(0.116696 -0.0246977 0)
(0.112418 -0.040508 0)
(0.106212 -0.0568977 0)
(0.0980774 -0.0740247 0)
(0.0880281 -0.0920506 0)
(0.0761042 -0.111137 0)
(0.0623825 -0.13144 0)
(0.0469913 -0.153096 0)
(0.03013 -0.176208 0)
(0.0120932 -0.200816 0)
(-0.00669997 -0.226855 0)
(-0.0256739 -0.254097 0)
(-0.0440642 -0.282068 0)
(-0.0608939 -0.309929 0)
(-0.0749712 -0.336335 0)
(-0.0849304 -0.359256 0)
(-0.0893496 -0.3758 0)
(-0.0869885 -0.38206 0)
(-0.0771766 -0.373107 0)
(-0.0603017 -0.343218 0)
(-0.038419 -0.286514 0)
(-0.0165857 -0.198139 0)
(-0.00328056 -0.0762497 0)
(0.183624 0.00522156 0)
(0.18328 -0.00791728 0)
(0.180897 -0.021308 0)
(0.176442 -0.0351003 0)
(0.169884 -0.049452 0)
(0.161191 -0.0645307 0)
(0.15034 -0.0805144 0)
(0.137321 -0.0975907 0)
(0.122148 -0.115954 0)
(0.104875 -0.135798 0)
(0.0856152 -0.157306 0)
(0.0645666 -0.180627 0)
(0.0420491 -0.205842 0)
(0.0185478 -0.232909 0)
(-0.00523631 -0.261578 0)
(-0.0283318 -0.291267 0)
(-0.0494533 -0.320885 0)
(-0.0669908 -0.348596 0)
(-0.079074 -0.371536 0)
(-0.0837817 -0.385503 0)
(-0.0795677 -0.384747 0)
(-0.0659017 -0.362011 0)
(-0.0442376 -0.309108 0)
(-0.0201217 -0.218396 0)
(-0.00424514 -0.0858135 0)
(0.254951 0.00447106 0)
(0.254718 -0.00658463 0)
(0.252363 -0.0178583 0)
(0.247842 -0.0294939 0)
(0.241107 -0.0416454 0)
(0.232098 -0.0544797 0)
(0.220754 -0.0681793 0)
(0.207012 -0.0829442 0)
(0.190821 -0.0989928 0)
(0.172148 -0.116561 0)
(0.151001 -0.135895 0)
(0.127454 -0.157243 0)
(0.101683 -0.180825 0)
(0.0740176 -0.206795 0)
(0.0450093 -0.235163 0)
(0.0155134 -0.265675 0)
(-0.0132175 -0.297623 0)
(-0.0394494 -0.329564 0)
(-0.0609369 -0.358922 0)
(-0.075035 -0.381489 0)
(-0.0790793 -0.390895 0)
(-0.0711149 -0.37827 0)
(-0.0512721 -0.332483 0)
(-0.025052 -0.241709 0)
(-0.00575399 -0.0977604 0)
(0.333558 0.00359466 0)
(0.33341 -0.0053282 0)
(0.331129 -0.0144308 0)
(0.326667 -0.0238435 0)
(0.319959 -0.0337072 0)
(0.310925 -0.0441775 0)
(0.299466 -0.0554287 0)
(0.285472 -0.0676579 0)
(0.268825 -0.0810891 0)
(0.249405 -0.0959774 0)
(0.227107 -0.11261 0)
(0.201859 -0.131304 0)
(0.173659 -0.152397 0)
(0.142621 -0.17622 0)
(0.109051 -0.203048 0)
(0.0735538 -0.232998 0)
(0.0371672 -0.265857 0)
(0.00153189 -0.30078 0)
(-0.030943 -0.335818 0)
(-0.0570085 -0.367217 0)
(-0.0727627 -0.388475 0)
(-0.0742803 -0.389359 0)
(-0.0592851 -0.355322 0)
(-0.031992 -0.268523 0)
(-0.0081992 -0.113241 0)
(0.419356 0.00266582 0)
(0.419254 -0.00415464 0)
(0.417096 -0.0111147 0)
(0.41283 -0.0183243 0)
(0.406381 -0.0259035 0)
(0.397652 -0.0339869 0)
(0.386519 -0.0427279 0)
(0.372831 -0.0523052 0)
(0.356415 -0.0629284 0)
(0.337071 -0.0748458 0)
(0.314587 -0.0883521 0)
(0.288743 -0.103796 0)
(0.259342 -0.121584 0)
(0.226241 -0.142179 0)
(0.189424 -0.166077 0)
(0.149104 -0.193754 0)
(0.105884 -0.225535 0)
(0.0610006 -0.26134 0)
(0.016629 -0.300207 0)
(-0.0237769 -0.339445 0)
(-0.0552864 -0.373287 0)
(-0.0716725 -0.390991 0)
(-0.0669133 -0.37474 0)
(-0.0415366 -0.298748 0)
(-0.0121936 -0.134045 0)
(0.512093 0.00177026 0)
(0.511997 -0.00306826 0)
(0.510014 -0.00800708 0)
(0.506093 -0.013131 0)
(0.500158 -0.0185333 0)
(0.492101 -0.0243199 0)
(0.481784 -0.0306139 0)
(0.469035 -0.0375614 0)
(0.453639 -0.0453386 0)
(0.435343 -0.0541613 0)
(0.413849 -0.0642962 0)
(0.388812 -0.076075 0)
(0.359855 -0.0899112 0)
(0.326579 -0.106318 0)
(0.288608 -0.12592 0)
(0.245667 -0.149454 0)
(0.197724 -0.177721 0)
(0.145246 -0.211437 0)
(0.0896076 -0.250869 0)
(0.0336922 -0.295037 0)
(-0.0173587 -0.340115 0)
(-0.0554218 -0.376581 0)
(-0.069731 -0.384944 0)
(-0.0532979 -0.330658 0)