/*--------------------------------*- C++ -*----------------------------------*\
| =========                 |                                                 |
| \\      /  F ield         | OpenFOAM: The Open Source CFD Toolbox           |
|  \\    /   O peration     | Version:  v2012                                 |
|   \\  /    A nd           | Website:  www.openfoam.com                      |
|    \\/     M anipulation  |                                                 |
\*---------------------------------------------------------------------------*/
FoamFile
{
    version     2.0;
    format      ascii;
    class       volVectorField;
    location    "0.05";
    object      U;
}
// * * * * * * * * * * * * * * * * * * * * * * * * * * * * * * * * * * * * * //

dimensions      [0 1 -1 0 0 0 0];


internalField   nonuniform List<vector> 
1250
(
(-0.00629336 -6.72728e-06 0)
(-0.0062436 -2.33458e-05 0)
(-0.00614007 -3.97206e-05 0)
(-0.00598392 -5.56427e-05 0)
(-0.00577705 -7.08974e-05 0)
(-0.00552206 -8.52552e-05 0)
(-0.00522236 -9.84714e-05 0)
(-0.00488214 -0.000110294 0)
(-0.00450639 -0.000120468 0)
(-0.00410088 -0.00012874 0)
(-0.00367218 -0.000134856 0)
(-0.00322761 -0.000138571 0)
(-0.0027752 -0.000139648 0)
(-0.00232364 -0.000137865 0)
(-0.00188218 -0.000133014 0)
(-0.00146055 -0.00012491 0)
(-0.00106882 -0.000113399 0)
(-0.000717198 -9.83708e-05 0)
(-0.000415798 -7.97904e-05 0)
(-0.000174183 -5.77759e-05 0)
(-6.67692e-07 -3.27942e-05 0)
(9.88799e-05 -6.09772e-06 0)
(0.000123897 1.93209e-05 0)
(8.79351e-05 3.63503e-05 0)
(2.88635e-05 2.87961e-05 0)
(-0.0177038 -4.46744e-05 0)
(-0.0175671 -0.000150636 0)
(-0.0172844 -0.000255016 0)
(-0.0168589 -0.000356384 0)
(-0.0162959 -0.000453303 0)
(-0.0156027 -0.000544281 0)
(-0.0147887 -0.000627782 0)
(-0.0138654 -0.000702249 0)
(-0.0128465 -0.000766124 0)
(-0.0117477 -0.000817874 0)
(-0.0105866 -0.000856007 0)
(-0.00938294 -0.00087911 0)
(-0.00815813 -0.000885876 0)
(-0.00693509 -0.000875143 0)
(-0.00573804 -0.000845942 0)
(-0.00459207 -0.000797558 0)
(-0.0035227 -0.00072962 0)
(-0.0025552 -0.000642245 0)
(-0.00171367 -0.00053627 0)
(-0.0010197 -0.00041371 0)
(-0.0004904 -0.000278628 0)
(-0.000135398 -0.000138785 0)
(4.81443e-05 -8.58553e-06 0)
(8.59166e-05 8.48548e-05 0)
(3.67285e-05 8.79457e-05 0)
(-0.0281676 -0.000126324 0)
(-0.0279545 -0.000420629 0)
(-0.0275155 -0.000710431 0)
(-0.0268555 -0.000991723 0)
(-0.0259828 -0.00126045 0)
(-0.0249089 -0.00151246 0)
(-0.0236482 -0.00174352 0)
(-0.0222188 -0.00194938 0)
(-0.0206414 -0.00212581 0)
(-0.0189404 -0.0022687 0)
(-0.0171429 -0.00237408 0)
(-0.0152788 -0.00243825 0)
(-0.0133805 -0.00245787 0)
(-0.0114827 -0.00243009 0)
(-0.00962158 -0.00235269 0)
(-0.00783441 -0.00222429 0)
(-0.00615864 -0.00204464 0)
(-0.00463079 -0.00181503 0)
(-0.00328505 -0.00153893 0)
(-0.00215131 -0.00122308 0)
(-0.0012525 -0.000879301 0)
(-0.000600922 -0.000527551 0)
(-0.000193026 -0.000200514 0)
(-3.34944e-06 4.84672e-05 0)
(2.08424e-05 0.000125462 0)
(-0.0378727 -0.000242723 0)
(-0.0375924 -0.000802538 0)
(-0.0370158 -0.00135368 0)
(-0.0361497 -0.00188852 0)
(-0.0350047 -0.00239931 0)
(-0.0335958 -0.00287816 0)
(-0.031942 -0.00331712 0)
(-0.0300667 -0.00370821 0)
(-0.0279969 -0.00404354 0)
(-0.0257641 -0.00431549 0)
(-0.0234032 -0.00451676 0)
(-0.0209528 -0.00464065 0)
(-0.0184544 -0.00468118 0)
(-0.0159523 -0.00463341 0)
(-0.0134924 -0.00449371 0)
(-0.0111218 -0.00426017 0)
(-0.00888725 -0.00393315 0)
(-0.00683428 -0.00351599 0)
(-0.00500498 -0.00301615 0)
(-0.003436 -0.00244688 0)
(-0.00215571 -0.00182979 0)
(-0.00118045 -0.00119889 0)
(-0.000509863 -0.00060593 0)
(-0.000127504 -0.000128925 0)
(-2.74623e-06 0.000105204 0)
(-0.0469753 -0.000388452 0)
(-0.0466357 -0.00127911 0)
(-0.0459371 -0.0021559 0)
(-0.0448877 -0.00300671 0)
(-0.0435004 -0.00381924 0)
(-0.041793 -0.00458102 0)
(-0.0397884 -0.00527952 0)
(-0.0375142 -0.00590221 0)
(-0.0350031 -0.00643681 0)
(-0.0322923 -0.00687143 0)
(-0.0294233 -0.00719485 0)
(-0.026442 -0.00739679 0)
(-0.0233976 -0.00746825 0)
(-0.020342 -0.00740196 0)
(-0.0173295 -0.00719282 0)
(-0.0144151 -0.00683856 0)
(-0.0116537 -0.00634051 0)
(-0.00909814 -0.00570473 0)
(-0.00679753 -0.00494346 0)
(-0.004795 -0.00407724 0)
(-0.00312509 -0.00313802 0)
(-0.00181012 -0.0021735 0)
(-0.000856428 -0.00125262 0)
(-0.000262275 -0.000473512 0)
(-2.74806e-05 1.41846e-05 0)
(-0.0556112 -0.000559894 0)
(-0.0552192 -0.00184073 0)
(-0.0544116 -0.00310166 0)
(-0.0531976 -0.00432534 0)
(-0.0515918 -0.00549419 0)
(-0.0496145 -0.00659044 0)
(-0.0472918 -0.00759625 0)
(-0.044655 -0.00849388 0)
(-0.0417413 -0.00926595 0)
(-0.0385927 -0.00989573 0)
(-0.0352566 -0.0103675 0)
(-0.0317846 -0.010667 0)
(-0.0282325 -0.0107818 0)
(-0.024659 -0.0107022 0)
(-0.0211253 -0.0104213 0)
(-0.0176935 -0.00993669 0)
(-0.0144255 -0.00925085 0)
(-0.011381 -0.00837279 0)
(-0.00861604 -0.00731982 0)
(-0.00618058 -0.00611985 0)
(-0.00411645 -0.00481475 0)
(-0.0024539 -0.00346463 0)
(-0.00120856 -0.00215284 0)
(-0.00039657 -0.000992833 0)
(-5.09875e-05 -0.000148213 0)
(-0.0638984 -0.000753274 0)
(-0.0634602 -0.00247864 0)
(-0.0625543 -0.0041774 0)
(-0.0611905 -0.00582636 0)
(-0.0593851 -0.00740205 0)
(-0.0571603 -0.00888077 0)
(-0.0545445 -0.0102388 0)
(-0.0515725 -0.0114525 0)
(-0.0482848 -0.0124989 0)
(-0.0447279 -0.0133559 0)
(-0.0409537 -0.0140027 0)
(-0.0370193 -0.0144207 0)
(-0.0329857 -0.0145937 0)
(-0.0289179 -0.014509 0)
(-0.0248832 -0.0141582 0)
(-0.0209501 -0.0135383 0)
(-0.0171873 -0.012653 0)
(-0.0136613 -0.0115141 0)
(-0.0104353 -0.0101438 0)
(-0.00756688 -0.00857698 0)
(-0.00510633 -0.00686441 0)
(-0.00309344 -0.00507686 0)
(-0.00155488 -0.00330929 0)
(-0.000525956 -0.00168623 0)
(-7.26255e-05 -0.000379102 0)
(-0.0719379 -0.000964655 0)
(-0.0714593 -0.00318492 0)
(-0.070464 -0.0053714 0)
(-0.0689627 -0.00749457 0)
(-0.0669726 -0.00952454 0)
(-0.0645174 -0.0114312 0)
(-0.0616277 -0.0131842 0)
(-0.0583406 -0.0147539 0)
(-0.0546998 -0.0161108 0)
(-0.0507554 -0.0172271 0)
(-0.0465634 -0.0180765 0)
(-0.0421852 -0.0186354 0)
(-0.0376871 -0.0188836 0)
(-0.0331393 -0.0188051 0)
(-0.0286151 -0.0183895 0)
(-0.0241893 -0.017633 0)
(-0.0199371 -0.01654 0)
(-0.0159323 -0.015125 0)
(-0.0122458 -0.0134145 0)
(-0.00894343 -0.0114493 0)
(-0.00608525 -0.00928802 0)
(-0.00372173 -0.00701024 0)
(-0.0018916 -0.00472 0)
(-0.00064946 -0.00254971 0)
(-9.24773e-05 -0.000674841 0)
(-0.0798157 -0.00119001 0)
(-0.079302 -0.00395261 0)
(-0.0782254 -0.00667398 0)
(-0.0765966 -0.00931786 0)
(-0.0744336 -0.0118475 0)
(-0.0717615 -0.0142259 0)
(-0.0686121 -0.0164158 0)
(-0.0650249 -0.0183806 0)
(-0.0610459 -0.0200843 0)
(-0.0567283 -0.0214926 0)
(-0.0521316 -0.0225733 0)
(-0.0473212 -0.0232974 0)
(-0.0423682 -0.02364 0)
(-0.0373479 -0.0235814 0)
(-0.0323392 -0.0231086 0)
(-0.0274233 -0.0222167 0)
(-0.0226824 -0.0209103 0)
(-0.0181977 -0.0192057 0)
(-0.0140484 -0.0171329 0)
(-0.0103099 -0.014738 0)
(-0.00705258 -0.0120859 0)
(-0.00433853 -0.0092634 0)
(-0.00221912 -0.00638158 0)
(-0.000767787 -0.00357858 0)
(-0.000110895 -0.00103206 0)
(-0.0876036 -0.00142508 0)
(-0.0870602 -0.00477533 0)
(-0.0859093 -0.00807686 0)
(-0.0841616 -0.0112863 0)
(-0.0818357 -0.0143597 0)
(-0.0789572 -0.0172528 0)
(-0.0755593 -0.0199209 0)
(-0.0716829 -0.0223202 0)
(-0.0673762 -0.0244076 0)
(-0.0626948 -0.0261417 0)
(-0.0577013 -0.0274839 0)
(-0.0524652 -0.0283991 0)
(-0.0470615 -0.0288573 0)
(-0.0415708 -0.0288345 0)
(-0.0360778 -0.0283144 0)
(-0.03067 -0.0272901 0)
(-0.0254369 -0.0257659 0)
(-0.0204679 -0.0237592 0)
(-0.0158512 -0.0213024 0)
(-0.0116724 -0.0184457 0)
(-0.00801301 -0.0152592 0)
(-0.00494751 -0.0118354 0)
(-0.00254004 -0.00829113 0)
(-0.000882395 -0.00476895 0)
(-0.000128304 -0.00144815 0)
(-0.09536 -0.00166531 0)
(-0.0947925 -0.00564697 0)
(-0.093574 -0.00957257 0)
(-0.0917153 -0.0133914 0)
(-0.0892349 -0.017052 0)
(-0.0861589 -0.0205023 0)
(-0.0825213 -0.0236902 0)
(-0.0783641 -0.0265639 0)
(-0.073737 -0.0290726 0)
(-0.0686979 -0.0311677 0)
(-0.0633123 -0.0328032 0)
(-0.0576529 -0.0339375 0)
(-0.0517991 -0.0345346 0)
(-0.0458365 -0.0345654 0)
(-0.0398554 -0.0340098 0)
(-0.0339504 -0.0328579 0)
(-0.0282184 -0.0311126 0)
(-0.0227578 -0.0287915 0)
(-0.0176664 -0.0259286 0)
(-0.0130407 -0.0225769 0)
(-0.00897435 -0.0188106 0)
(-0.00555439 -0.0147269 0)
(-0.00285807 -0.0104474 0)
(-0.000995038 -0.00611849 0)
(-0.000145124 -0.00192147 0)
(-0.10313 -0.00190577 0)
(-0.102545 -0.00656141 0)
(-0.101265 -0.011154 0)
(-0.099303 -0.0156253 0)
(-0.0966761 -0.0199161 0)
(-0.0934107 -0.0239664 0)
(-0.089541 -0.0277159 0)
(-0.0851098 -0.0311047 0)
(-0.0801681 -0.0340739 0)
(-0.0747756 -0.0365666 0)
(-0.0690001 -0.0385291 0)
(-0.0629176 -0.0399126 0)
(-0.0566117 -0.040674 0)
(-0.0501727 -0.0407785 0)
(-0.0436973 -0.0402008 0)
(-0.037287 -0.0389274 0)
(-0.0310469 -0.0369588 0)
(-0.0250846 -0.0343113 0)
(-0.0195087 -0.0310196 0)
(-0.014427 -0.0271386 0)
(-0.009946 -0.0227454 0)
(-0.00616595 -0.0179412 0)
(-0.00317737 -0.0128515 0)
(-0.00110754 -0.00762684 0)
(-0.000161746 -0.00245135 0)
(-0.110947 -0.00214109 0)
(-0.110349 -0.00751226 0)
(-0.109016 -0.012814 0)
(-0.106958 -0.0179804 0)
(-0.104193 -0.0229443 0)
(-0.100746 -0.0276375 0)
(-0.0966516 -0.0319912 0)
(-0.0919529 -0.0359369 0)
(-0.0867019 -0.039407 0)
(-0.0809593 -0.0423359 0)
(-0.0747953 -0.0446613 0)
(-0.0682888 -0.0463261 0)
(-0.0615273 -0.0472797 0)
(-0.0546063 -0.0474801 0)
(-0.0476284 -0.0468958 0)
(-0.0407027 -0.0455086 0)
(-0.0339429 -0.0433152 0)
(-0.0274668 -0.0403298 0)
(-0.0213938 -0.0365864 0)
(-0.0158443 -0.0321406 0)
(-0.0109381 -0.0270716 0)
(-0.00678935 -0.021484 0)
(-0.00350219 -0.0155071 0)
(-0.00122169 -0.00929575 0)
(-0.000178528 -0.00303813 0)
(-0.11883 -0.00236539 0)
(-0.118227 -0.00849268 0)
(-0.116847 -0.014545 0)
(-0.114702 -0.0204487 0)
(-0.111807 -0.0261284 0)
(-0.108187 -0.0315077 0)
(-0.103876 -0.0365089 0)
(-0.0989175 -0.0410546 0)
(-0.0933627 -0.0450677 0)
(-0.0872739 -0.0484733 0)
(-0.080723 -0.0511998 0)
(-0.0737916 -0.0531808 0)
(-0.0665708 -0.0543568 0)
(-0.0591613 -0.0546777 0)
(-0.0516719 -0.0541047 0)
(-0.0442195 -0.0526132 0)
(-0.0369269 -0.0501949 0)
(-0.0299224 -0.0468606 0)
(-0.0233375 -0.0426423 0)
(-0.0173056 -0.0375954 0)
(-0.0119608 -0.0318004 0)
(-0.00743173 -0.0253643 0)
(-0.00383674 -0.0184208 0)
(-0.00133919 -0.011129 0)
(-0.00019579 -0.00368306 0)
(-0.126785 -0.00257233 0)
(-0.126182 -0.00949514 0)
(-0.124766 -0.0163385 0)
(-0.122542 -0.023021 0)
(-0.119528 -0.0294592 0)
(-0.115745 -0.035568 0)
(-0.111228 -0.0412609 0)
(-0.106017 -0.0464507 0)
(-0.100166 -0.0510506 0)
(-0.0937367 -0.0549756 0)
(-0.0868018 -0.0581439 0)
(-0.0794455 -0.0604786 0)
(-0.0717627 -0.0619103 0)
(-0.0638586 -0.0623792 0)
(-0.0558487 -0.0618379 0)
(-0.0478576 -0.0602539 0)
(-0.040018 -0.0576125 0)
(-0.0324692 -0.0539194 0)
(-0.0253553 -0.0492034 0)
(-0.0188239 -0.0435185 0)
(-0.0130241 -0.0369456 0)
(-0.00810004 -0.0295941 0)
(-0.00418502 -0.0216015 0)
(-0.00146166 -0.0131326 0)
(-0.000213829 -0.00438826 0)
(-0.134801 -0.00275504 0)
(-0.134209 -0.0105113 0)
(-0.132765 -0.0181849 0)
(-0.130474 -0.0256869 0)
(-0.127351 -0.0329257 0)
(-0.123418 -0.0398076 0)
(-0.118706 -0.0462367 0)
(-0.113256 -0.052116 0)
(-0.107119 -0.0573484 0)
(-0.100356 -0.0618378 0)
(-0.0930428 -0.0654911 0)
(-0.0852641 -0.0682201 0)
(-0.0771181 -0.069944 0)
(-0.0687149 -0.0705919 0)
(-0.0601763 -0.0701059 0)
(-0.0516349 -0.0684442 0)
(-0.0432336 -0.0655836 0)
(-0.0351233 -0.0615236 0)
(-0.0274617 -0.0562879 0)
(-0.0204114 -0.049928 0)
(-0.0141375 -0.0425244 0)
(-0.00880089 -0.0341883 0)
(-0.00455086 -0.0250613 0)
(-0.00159059 -0.0153142 0)
(-0.000232915 -0.00515666 0)
(-0.142856 -0.00290623 0)
(-0.142282 -0.0115319 0)
(-0.140821 -0.0200733 0)
(-0.138476 -0.0284341 0)
(-0.13526 -0.0365148 0)
(-0.131192 -0.0442129 0)
(-0.1263 -0.0514232 0)
(-0.120625 -0.0580385 0)
(-0.114215 -0.0639505 0)
(-0.107131 -0.0690515 0)
(-0.0994487 -0.0732361 0)
(-0.0912534 -0.0764034 0)
(-0.0826464 -0.0784597 0)
(-0.073742 -0.0793213 0)
(-0.0646682 -0.0789182 0)
(-0.0555661 -0.0771969 0)
(-0.0465887 -0.0741245 0)
(-0.0378993 -0.0696915 0)
(-0.0296701 -0.0639157 0)
(-0.0220794 -0.0568443 0)
(-0.01531 -0.0485563 0)
(-0.00954054 -0.0391644 0)
(-0.00493788 -0.0288142 0)
(-0.00172741 -0.0176835 0)
(-0.000253299 -0.00599192 0)
(-0.150909 -0.00301821 0)
(-0.150363 -0.0125466 0)
(-0.148897 -0.0219909 0)
(-0.146513 -0.0312479 0)
(-0.14322 -0.0402103 0)
(-0.139035 -0.048767 0)
(-0.133984 -0.0568034 0)
(-0.128102 -0.0642016 0)
(-0.121438 -0.0708419 0)
(-0.114051 -0.0766041 0)
(-0.106012 -0.0813693 0)
(-0.0974112 -0.0850226 0)
(-0.0883495 -0.0874556 0)
(-0.0789456 -0.0885703 0)
(-0.0693335 -0.0882821 0)
(-0.0596623 -0.0865241 0)
(-0.0500956 -0.0832508 0)
(-0.0408098 -0.0784425 0)
(-0.0319922 -0.0721083 0)
(-0.0238384 -0.0642898 0)
(-0.0165499 -0.0550635 0)
(-0.0103249 -0.0445427 0)
(-0.00534948 -0.0328771 0)
(-0.00187348 -0.0202519 0)
(-0.000275223 -0.00689846 0)
(-0.1589 -0.00308306 0)
(-0.158392 -0.0135439 0)
(-0.156935 -0.0239232 0)
(-0.154529 -0.0341109 0)
(-0.15118 -0.0439926 0)
(-0.146901 -0.0534489 0)
(-0.141715 -0.0623554 0)
(-0.135652 -0.0705838 0)
(-0.128759 -0.0780023 0)
(-0.12109 -0.0844774 0)
(-0.112716 -0.0898756 0)
(-0.103726 -0.0940665 0)
(-0.0942217 -0.0969255 0)
(-0.0843252 -0.0983377 0)
(-0.0741756 -0.0982019 0)
(-0.0639303 -0.0964352 0)
(-0.0537635 -0.0929773 0)
(-0.0438652 -0.0877953 0)
(-0.0344385 -0.0808877 0)
(-0.0256977 -0.0722885 0)
(-0.0178649 -0.0620701 0)
(-0.0111595 -0.0503456 0)
(-0.00578893 -0.0372686 0)
(-0.00203009 -0.0230324 0)
(-0.000298919 -0.00788136 0)
(-0.166752 -0.00309275 0)
(-0.166292 -0.0145115 0)
(-0.16486 -0.0258534 0)
(-0.162453 -0.0370027 0)
(-0.159072 -0.0478382 0)
(-0.154727 -0.0582324 0)
(-0.149434 -0.0680519 0)
(-0.143223 -0.0771574 0)
(-0.136131 -0.0854048 0)
(-0.128211 -0.0926463 0)
(-0.119531 -0.0987331 0)
(-0.110175 -0.103517 0)
(-0.100248 -0.106857 0)
(-0.0898722 -0.108617 0)
(-0.079192 -0.108677 0)
(-0.0683723 -0.106937 0)
(-0.0575981 -0.103316 0)
(-0.0470731 -0.0977679 0)
(-0.0370177 -0.0902763 0)
(-0.0276659 -0.0808656 0)
(-0.0192621 -0.0696022 0)
(-0.0120496 -0.0565979 0)
(-0.00625941 -0.0420098 0)
(-0.00219852 -0.0260398 0)
(-0.00032462 -0.00894635 0)
(-0.174367 -0.00303943 0)
(-0.173966 -0.0154357 0)
(-0.172576 -0.0277626 0)
(-0.17019 -0.0398994 0)
(-0.166806 -0.0517188 0)
(-0.162427 -0.0630861 0)
(-0.157066 -0.073859 0)
(-0.150744 -0.0838873 0)
(-0.143493 -0.0930143 0)
(-0.135362 -0.101078 0)
(-0.126412 -0.107911 0)
(-0.116725 -0.113349 0)
(-0.106403 -0.117229 0)
(-0.0955697 -0.119394 0)
(-0.0843732 -0.119702 0)
(-0.0729851 -0.11803 0)
(-0.0616009 -0.114277 0)
(-0.0504386 -0.108376 0)
(-0.0397365 -0.100296 0)
(-0.0297502 -0.0900464 0)
(-0.0207483 -0.0776869 0)
(-0.0130004 -0.0633259 0)
(-0.006764 -0.0471235 0)
(-0.00238004 -0.02929 0)
(-0.000352566 -0.0100998 0)
(-0.181623 -0.00291566 0)
(-0.181293 -0.0163021 0)
(-0.179963 -0.0296295 0)
(-0.177625 -0.0427733 0)
(-0.174269 -0.0556012 0)
(-0.169896 -0.0679721 0)
(-0.16451 -0.0797351 0)
(-0.158125 -0.0907298 0)
(-0.150766 -0.100787 0)
(-0.142472 -0.109728 0)
(-0.133301 -0.11737 0)
(-0.123327 -0.123527 0)
(-0.112649 -0.128012 0)
(-0.101391 -0.130647 0)
(-0.0897019 -0.131262 0)
(-0.0777595 -0.129709 0)
(-0.0657693 -0.125864 0)
(-0.0539639 -0.119633 0)
(-0.0426002 -0.110966 0)
(-0.0319569 -0.0998564 0)
(-0.0223296 -0.0863526 0)
(-0.0140167 -0.0705579 0)
(-0.00730585 -0.0526343 0)
(-0.00257599 -0.0328009 0)
(-0.000383007 -0.0113489 0)
(-0.188376 -0.00271481 0)
(-0.188127 -0.0170955 0)
(-0.186878 -0.0314306 0)
(-0.184616 -0.0455931 0)
(-0.181328 -0.0594469 0)
(-0.177006 -0.0728454 0)
(-0.171646 -0.0856304 0)
(-0.165255 -0.0976316 0)
(-0.157847 -0.108667 0)
(-0.149453 -0.118543 0)
(-0.140121 -0.127057 0)
(-0.129918 -0.134001 0)
(-0.118937 -0.139165 0)
(-0.107298 -0.142341 0)
(-0.0951518 -0.143334 0)
(-0.0826793 -0.141963 0)
(-0.0700957 -0.138073 0)
(-0.0576476 -0.131546 0)
(-0.0456118 -0.122303 0)
(-0.0342915 -0.11032 0)
(-0.0240118 -0.0956279 0)
(-0.0151035 -0.0783235 0)
(-0.00788816 -0.0585688 0)
(-0.00278774 -0.0365917 0)
(-0.000416215 -0.0127013 0)
(-0.194455 -0.00243142 0)
(-0.194297 -0.0178002 0)
(-0.19315 -0.0331401 0)
(-0.190997 -0.0483232 0)
(-0.187819 -0.0632112 0)
(-0.1836 -0.0776537 0)
(-0.178328 -0.091486 0)
(-0.171997 -0.104529 0)
(-0.164613 -0.116588 0)
(-0.156195 -0.127454 0)
(-0.146777 -0.136905 0)
(-0.136417 -0.14471 0)
(-0.125201 -0.150632 0)
(-0.113241 -0.154432 0)
(-0.100686 -0.155882 0)
(-0.0877207 -0.154766 0)
(-0.0745666 -0.150896 0)
(-0.0614849 -0.144117 0)
(-0.0487722 -0.134323 0)
(-0.0367584 -0.12146 0)
(-0.0258005 -0.105541 0)
(-0.0162659 -0.0866532 0)
(-0.0085144 -0.0649552 0)
(-0.00301682 -0.0406832 0)
(-0.000452496 -0.0141656 0)
(-0.199663 -0.00206174 0)
(-0.199605 -0.0184004 0)
(-0.198583 -0.0347301 0)
(-0.196574 -0.0509241 0)
(-0.193554 -0.0668439 0)
(-0.189497 -0.0823366 0)
(-0.184382 -0.0972329 0)
(-0.178191 -0.111346 0)
(-0.170916 -0.124469 0)
(-0.162562 -0.136379 0)
(-0.15315 -0.146834 0)
(-0.142725 -0.155576 0)
(-0.131358 -0.162341 0)
(-0.119155 -0.166856 0)
(-0.106258 -0.168855 0)
(-0.0928508 -0.168083 0)
(-0.0791626 -0.16431 0)
(-0.0654667 -0.157341 0)
(-0.0520802 -0.147031 0)
(-0.039361 -0.133295 0)
(-0.0277014 -0.116121 0)
(-0.0175093 -0.095579 0)
(-0.00918836 -0.0718237 0)
(-0.00326496 -0.0450981 0)
(-0.000492203 -0.0157511 0)
(-0.203774 -0.00160418 0)
(-0.203824 -0.0188805 0)
(-0.202949 -0.0361711 0)
(-0.201122 -0.0533526 0)
(-0.198311 -0.0702883 0)
(-0.194483 -0.0868253 0)
(-0.189605 -0.102792 0)
(-0.183644 -0.117994 0)
(-0.176579 -0.132216 0)
(-0.168396 -0.14522 0)
(-0.159099 -0.156742 0)
(-0.148718 -0.166502 0)
(-0.137306 -0.174202 0)
(-0.124957 -0.179533 0)
(-0.111804 -0.182186 0)
(-0.0980264 -0.181862 0)
(-0.0838567 -0.178281 0)
(-0.0695794 -0.171201 0)
(-0.0555321 -0.16043 0)
(-0.042102 -0.145843 0)
(-0.0297201 -0.127394 0)
(-0.0188397 -0.105133 0)
(-0.00991438 -0.0792061 0)
(-0.00353415 -0.049861 0)
(-0.000535757 -0.0174682 0)
(-0.206532 -0.00105994 0)
(-0.206695 -0.0192256 0)
(-0.20599 -0.037432 0)
(-0.204384 -0.0555616 0)
(-0.201841 -0.0734821 0)
(-0.198315 -0.0910429 0)
(-0.193762 -0.108072 0)
(-0.188135 -0.124371 0)
(-0.181393 -0.139718 0)
(-0.173504 -0.153858 0)
(-0.164454 -0.166511 0)
(-0.154247 -0.177369 0)
(-0.14292 -0.186101 0)
(-0.130547 -0.192359 0)
(-0.117247 -0.195786 0)
(-0.103192 -0.196031 0)
(-0.088613 -0.192758 0)
(-0.0738039 -0.185667 0)
(-0.0591213 -0.17451 0)
(-0.0449833 -0.159112 0)
(-0.0318627 -0.139385 0)
(-0.0202639 -0.115349 0)
(-0.0106976 -0.0871366 0)
(-0.00382682 -0.0549987 0)
(-0.000583667 -0.0193284 0)
(-0.20765 -0.000433548 0)
(-0.207929 -0.0194225 0)
(-0.207416 -0.0384814 0)
(-0.206074 -0.0575013 0)
(-0.203858 -0.0763573 0)
(-0.200714 -0.0949041 0)
(-0.196584 -0.112972 0)
(-0.191405 -0.130363 0)
(-0.185117 -0.146846 0)
(-0.177666 -0.162158 0)
(-0.169012 -0.175999 0)
(-0.159136 -0.188036 0)
(-0.148049 -0.197902 0)
(-0.1358 -0.205206 0)
(-0.12249 -0.209542 0)
(-0.108277 -0.210496 0)
(-0.0933854 -0.20767 0)
(-0.0781143 -0.200694 0)
(-0.0628381 -0.189252 0)
(-0.0480059 -0.173106 0)
(-0.0341361 -0.152116 0)
(-0.0217901 -0.12626 0)
(-0.0115442 -0.0956517 0)
(-0.00414591 -0.0605411 0)
(-0.000636571 -0.0213445 0)
(-0.206811 0.000266577 0)
(-0.207207 -0.0194596 0)
(-0.206906 -0.0392875 0)
(-0.205869 -0.0591196 0)
(-0.204044 -0.0788413 0)
(-0.201368 -0.0983162 0)
(-0.197767 -0.11738 0)
(-0.193163 -0.135838 0)
(-0.187474 -0.153456 0)
(-0.180621 -0.169963 0)
(-0.172538 -0.185041 0)
(-0.163174 -0.198332 0)
(-0.15251 -0.209437 0)
(-0.140566 -0.217917 0)
(-0.127415 -0.22331 0)
(-0.113194 -0.225137 0)
(-0.0981147 -0.222922 0)
(-0.0824768 -0.216215 0)
(-0.0666683 -0.204621 0)
(-0.0511698 -0.187819 0)
(-0.0365479 -0.165603 0)
(-0.0234279 -0.1379 0)
(-0.0124618 -0.104791 0)
(-0.00449515 -0.0665209 0)
(-0.000695277 -0.0235312 0)
(-0.203668 0.00102763 0)
(-0.204175 -0.0193285 0)
(-0.204104 -0.0398196 0)
(-0.203413 -0.060363 0)
(-0.202045 -0.080858 0)
(-0.199925 -0.10118 0)
(-0.196968 -0.121176 0)
(-0.193076 -0.140655 0)
(-0.188145 -0.159387 0)
(-0.182071 -0.177094 0)
(-0.174754 -0.193446 0)
(-0.166112 -0.208062 0)
(-0.156087 -0.220509 0)
(-0.144662 -0.230301 0)
(-0.131874 -0.236915 0)
(-0.117832 -0.239797 0)
(-0.102726 -0.238388 0)
(-0.0868469 -0.232141 0)
(-0.0705931 -0.220561 0)
(-0.054474 -0.203233 0)
(-0.0391073 -0.17986 0)
(-0.0251897 -0.150302 0)
(-0.0134603 -0.114596 0)
(-0.0048793 -0.0729753 0)
(-0.000760828 -0.0259053 0)
(-0.197841 0.00183209 0)
(-0.198451 -0.0190238 0)
(-0.198625 -0.040049 0)
(-0.19832 -0.0611786 0)
(-0.197473 -0.0823291 0)
(-0.196001 -0.103393 0)
(-0.193806 -0.124229 0)
(-0.190771 -0.14466 0)
(-0.186771 -0.164461 0)
(-0.181672 -0.183353 0)
(-0.175341 -0.200999 0)
(-0.167657 -0.216999 0)
(-0.158519 -0.230886 0)
(-0.147865 -0.242129 0)
(-0.135688 -0.25014 0)
(-0.122054 -0.254285 0)
(-0.107122 -0.253907 0)
(-0.0911669 -0.248349 0)
(-0.0745861 -0.236996 0)
(-0.0579153 -0.219312 0)
(-0.041825 -0.194891 0)
(-0.0270906 -0.163499 0)
(-0.0145521 -0.125114 0)
(-0.00530456 -0.079947 0)
(-0.000834594 -0.0284864 0)
(-0.188924 0.00265753 0)
(-0.189623 -0.0185445 0)
(-0.190054 -0.0399501 0)
(-0.19017 -0.061515 0)
(-0.189907 -0.0831767 0)
(-0.189174 -0.104847 0)
(-0.18786 -0.126406 0)
(-0.185833 -0.147689 0)
(-0.182945 -0.168485 0)
(-0.179033 -0.188522 0)
(-0.173929 -0.207459 0)
(-0.167467 -0.224883 0)
(-0.159499 -0.240299 0)
(-0.14991 -0.253131 0)
(-0.138635 -0.262726 0)
(-0.125687 -0.268363 0)
(-0.111182 -0.269275 0)
(-0.0953608 -0.264679 0)
(-0.0786114 -0.253816 0)
(-0.0614882 -0.236002 0)
(-0.0447138 -0.210689 0)
(-0.02915 -0.177524 0)
(-0.0157534 -0.136398 0)
(-0.00577909 -0.0874852 0)
(-0.000918405 -0.0312981 0)
(-0.176484 0.00347675 0)
(-0.177255 -0.0178944 0)
(-0.177947 -0.0395019 0)
(-0.178516 -0.0613251 0)
(-0.178893 -0.0833255 0)
(-0.178985 -0.105439 0)
(-0.178671 -0.127569 0)
(-0.177804 -0.149574 0)
(-0.176214 -0.171259 0)
(-0.173712 -0.192367 0)
(-0.170091 -0.212563 0)
(-0.165142 -0.231426 0)
(-0.158661 -0.248441 0)
(-0.150471 -0.262992 0)
(-0.140441 -0.274361 0)
(-0.128516 -0.281737 0)
(-0.114748 -0.284234 0)
(-0.0993276 -0.280921 0)
(-0.0826188 -0.270871 0)
(-0.0651819 -0.253218 0)
(-0.0477882 -0.227234 0)
(-0.0313924 -0.192405 0)
(-0.0170856 -0.148504 0)
(-0.00631383 -0.0956483 0)
(-0.00101475 -0.0343686 0)
(-0.160067 0.00425833 0)
(-0.160887 -0.0170821 0)
(-0.161839 -0.0386893 0)
(-0.162884 -0.060568 0)
(-0.163953 -0.0827066 0)
(-0.164948 -0.105069 0)
(-0.165744 -0.127586 0)
(-0.166183 -0.150145 0)
(-0.166077 -0.172576 0)
(-0.165211 -0.194643 0)
(-0.163343 -0.216027 0)
(-0.160217 -0.23631 0)
(-0.155571 -0.254967 0)
(-0.149158 -0.271349 0)
(-0.14077 -0.284679 0)
(-0.130265 -0.294054 0)
(-0.117612 -0.298463 0)
(-0.102932 -0.296808 0)
(-0.0865369 -0.287964 0)
(-0.0689776 -0.270842 0)
(-0.0510643 -0.244484 0)
(-0.0338488 -0.208167 0)
(-0.0185767 -0.161499 0)
(-0.00692355 -0.104507 0)
(-0.00112705 -0.0377332 0)
(-0.139202 0.00496755 0)
(-0.140044 -0.016122 0)
(-0.141251 -0.0375044 0)
(-0.142785 -0.0592116 0)
(-0.144582 -0.0812609 0)
(-0.146547 -0.103647 0)
(-0.14855 -0.126333 0)
(-0.150429 -0.149239 0)
(-0.151983 -0.17223 0)
(-0.152974 -0.195099 0)
(-0.153131 -0.217554 0)
(-0.152152 -0.239195 0)
(-0.149715 -0.259496 0)
(-0.145498 -0.27779 0)
(-0.139202 -0.293251 0)
(-0.130584 -0.304891 0)
(-0.119507 -0.311565 0)
(-0.105988 -0.311996 0)
(-0.0902628 -0.304828 0)
(-0.0728419 -0.288701 0)
(-0.0545579 -0.262369 0)
(-0.0365584 -0.224828 0)
(-0.0202642 -0.175458 0)
(-0.00762858 -0.114146 0)
(-0.00126017 -0.041436 0)
(-0.11341 0.00556796 0)
(-0.114246 -0.0150335 0)
(-0.115692 -0.0359483 0)
(-0.117718 -0.057236 0)
(-0.120267 -0.078944 0)
(-0.123247 -0.1011 0)
(-0.126535 -0.123702 0)
(-0.129966 -0.14671 0)
(-0.133334 -0.170028 0)
(-0.136389 -0.193492 0)
(-0.138833 -0.216846 0)
(-0.140325 -0.239723 0)
(-0.140486 -0.261616 0)
(-0.138916 -0.281857 0)
(-0.135216 -0.299588 0)
(-0.129026 -0.313745 0)
(-0.120073 -0.323056 0)
(-0.108241 -0.32605 0)
(-0.0936452 -0.321111 0)
(-0.0767171 -0.306558 0)
(-0.0582808 -0.280776 0)
(-0.0395695 -0.242392 0)
(-0.0221982 -0.190465 0)
(-0.00845727 -0.124674 0)
(-0.00142108 -0.0455342 0)
(-0.0822117 0.00602349 0)
(-0.0830097 -0.0138405 0)
(-0.0846736 -0.0340315 0)
(-0.0871817 -0.0546359 0)
(-0.0904849 -0.0757309 0)
(-0.0945036 -0.0973775 0)
(-0.0991226 -0.119612 0)
(-0.104186 -0.142437 0)
(-0.109492 -0.165803 0)
(-0.114784 -0.189597 0)
(-0.119752 -0.213615 0)
(-0.124024 -0.237537 0)
(-0.127171 -0.260899 0)
(-0.128719 -0.283053 0)
(-0.128165 -0.303135 0)
(-0.125014 -0.320028 0)
(-0.118835 -0.332344 0)
(-0.109335 -0.33842 0)
(-0.0964588 -0.336352 0)
(-0.0805029 -0.324077 0)
(-0.0622329 -0.299526 0)
(-0.0429401 -0.260836 0)
(-0.0244459 -0.206616 0)
(-0.00944983 -0.136225 0)
(-0.00162013 -0.0501031 0)
(-0.0451378 0.00630123 0)
(-0.0458693 -0.0125708 0)
(-0.047723 -0.0317755 0)
(-0.0506871 -0.0514238 0)
(-0.0547253 -0.0716209 0)
(-0.0597733 -0.0924606 0)
(-0.0657327 -0.114018 0)
(-0.0724644 -0.136338 0)
(-0.0797804 -0.159427 0)
(-0.0874349 -0.183228 0)
(-0.0951162 -0.207602 0)
(-0.102438 -0.232298 0)
(-0.108936 -0.256914 0)
(-0.114071 -0.280855 0)
(-0.117238 -0.303284 0)
(-0.117803 -0.323065 0)
(-0.115149 -0.338725 0)
(-0.108766 -0.348418 0)
(-0.0983641 -0.34994 0)
(-0.0840276 -0.340794 0)
(-0.0663866 -0.318348 0)
(-0.0467353 -0.280097 0)
(-0.0270975 -0.224015 0)
(-0.0106644 -0.148971 0)
(-0.0018732 -0.0552442 0)
(-0.00174542 0.00637467 0)
(-0.00238464 -0.0112543 0)
(-0.00439362 -0.0292128 0)
(-0.00777173 -0.0476326 0)
(-0.0124987 -0.0666433 0)
(-0.01853 -0.0863683 0)
(-0.0257913 -0.106919 0)
(-0.0341695 -0.128387 0)
(-0.0435038 -0.15083 0)
(-0.0535733 -0.174257 0)
(-0.0640846 -0.198606 0)
(-0.0746576 -0.22371 0)
(-0.0848138 -0.249258 0)
(-0.0939685 -0.274741 0)
(-0.101433 -0.29939 0)
(-0.106432 -0.322103 0)
(-0.108152 -0.341366 0)
(-0.105822 -0.355191 0)
(-0.0988463 -0.361081 0)
(-0.086998 -0.356061 0)
(-0.0706568 -0.336825 0)
(-0.0510199 -0.300033 0)
(-0.0302732 -0.242765 0)
(-0.012187 -0.163136 0)
(-0.0022055 -0.0610982 0)
(0.0483687 0.00622734 0)
(0.047841 -0.00992134 0)
(0.0457162 -0.0263872 0)
(0.0419828 -0.0433175 0)
(0.0366431 -0.0608612 0)
(0.0297172 -0.0791662 0)
(0.0212493 -0.0983761 0)
(0.0113166 -0.118623 0)
(3.97278e-05 -0.14002 0)
(-0.0124025 -0.162642 0)
(-0.0257568 -0.186511 0)
(-0.0396756 -0.21156 0)
(-0.0536967 -0.237593 0)
(-0.0672232 -0.264223 0)
(-0.0795102 -0.290804 0)
(-0.0896658 -0.316327 0)
(-0.0966784 -0.339314 0)
(-0.0994876 -0.357702 0)
(-0.0971207 -0.368745 0)
(-0.0889171 -0.368982 0)
(-0.0748449 -0.354327 0)
(-0.0558355 -0.320372 0)
(-0.0341295 -0.26295 0)
(-0.014147 -0.179006 0)
(-0.00265873 -0.0678664 0)
(0.105549 0.00585651 0)
(0.105143 -0.0086004 0)
(0.102945 -0.0233533 0)
(0.0989327 -0.0385582 0)
(0.0930877 -0.0543762 0)
(0.0854033 -0.0709728 0)
(0.0758882 -0.0885165 0)
(0.0645752 -0.107174 0)
(0.051533 -0.127107 0)
(0.0368807 -0.148456 0)
(0.0208079 -0.171327 0)
(0.00359846 -0.195761 0)
(-0.0143398 -0.221698 0)
(-0.0324433 -0.248912 0)
(-0.0499602 -0.276927 0)
(-0.0659269 -0.304909 0)
(-0.0791649 -0.331514 0)
(-0.0883228 -0.354715 0)
(-0.0919927 -0.371618 0)
(-0.0889483 -0.378323 0)
(-0.0785332 -0.369895 0)
(-0.0611479 -0.340612 0)
(-0.0388594 -0.284586 0)
(-0.0167421 -0.19695 0)
(-0.00330443 -0.0758454 0)
(0.170062 0.00527642 0)
(0.169776 -0.00731615 0)
(0.167551 -0.0201754 0)
(0.163351 -0.0334585 0)
(0.157141 -0.0473305 0)
(0.148884 -0.0619653 0)
(0.13855 -0.0775463 0)
(0.126124 -0.094266 0)
(0.11161 -0.112322 0)
(0.095054 -0.131913 0)
(0.0765585 -0.153223 0)
(0.0563119 -0.176404 0)
(0.034623 -0.201539 0)
(0.0119651 -0.228586 0)
(-0.0109724 -0.257297 0)
(-0.0332309 -0.28709 0)
(-0.0535382 -0.316877 0)
(-0.0702974 -0.344823 0)
(-0.0816521 -0.368065 0)
(-0.0856948 -0.382404 0)
(-0.0808929 -0.382088 0)
(-0.066729 -0.35986 0)
(-0.0446688 -0.307523 0)
(-0.0202753 -0.217426 0)
(-0.00426874 -0.0854884 0)
(0.242074 0.0045206 0)
(0.241895 -0.00608765 0)
(0.239687 -0.0169267 0)
(0.235408 -0.0281468 0)
(0.229004 -0.0399078 0)
(0.22041 -0.0523817 0)
(0.20956 -0.0657554 0)
(0.196383 -0.0802328 0)
(0.180819 -0.0960355 0)
(0.162828 -0.113402 0)
(0.142408 -0.13258 0)
(0.119623 -0.153819 0)
(0.0946383 -0.177341 0)
(0.0677732 -0.203299 0)
(0.0395676 -0.231705 0)
(0.010865 -0.262306 0)
(-0.0170941 -0.294395 0)
(-0.0425883 -0.326529 0)
(-0.0633848 -0.356134 0)
(-0.0768517 -0.379004 0)
(-0.0803379 -0.388769 0)
(-0.0719007 -0.376556 0)
(-0.0516817 -0.331229 0)
(-0.0251981 -0.240951 0)
(-0.00577658 -0.097512 0)
(0.321631 0.00364228 0)
(0.321531 -0.00492757 0)
(0.319388 -0.013688 0)
(0.315151 -0.0227743 0)
(0.308753 -0.032332 0)
(0.300107 -0.0425209 0)
(0.289109 -0.0535186 0)
(0.275643 -0.0655252 0)
(0.259581 -0.0787672 0)
(0.240796 -0.0935013 0)
(0.219174 -0.110016 0)
(0.194634 -0.12863 0)
(0.167163 -0.14968 0)
(0.136865 -0.173499 0)
(0.104038 -0.200362 0)
(0.0692734 -0.230386 0)
(0.033599 -0.263358 0)
(-0.00135586 -0.298435 0)
(-0.0331939 -0.33367 0)
(-0.0586779 -0.365307 0)
(-0.073918 -0.386848 0)
(-0.0750008 -0.388056 0)
(-0.0596602 -0.354377 0)
(-0.0321258 -0.267961 0)
(-0.00821993 -0.113064 0)
(0.408635 0.00271242 0)
(0.408577 -0.00384311 0)
(0.406546 -0.010547 0)
(0.402487 -0.0175128 0)
(0.396322 -0.0248641 0)
(0.387949 -0.0327386 0)
(0.377236 -0.0412925 0)
(0.364029 -0.0507063 0)
(0.348144 -0.0611915 0)
(0.329377 -0.0729976 0)
(0.307504 -0.0864202 0)
(0.2823 -0.101808 0)
(0.253555 -0.11957 0)
(0.22112 -0.140166 0)
(0.184969 -0.164094 0)
(0.145305 -0.19183 0)
(0.102722 -0.223699 0)
(0.058445 -0.259622 0)
(0.0146406 -0.298637 0)
(-0.0252484 -0.338055 0)
(-0.0563021 -0.37211 0)
(-0.0723035 -0.390056 0)
(-0.0672404 -0.374073 0)
(-0.0416526 -0.298363 0)
(-0.0122115 -0.133932 0)
(0.502825 0.00181423 0)
(0.502771 -0.00283887 0)
(0.500903 -0.00759877 0)
(0.497168 -0.0125529 0)
(0.491485 -0.0177971 0)
(0.483743 -0.0234394 0)
(0.473799 -0.0296048 0)
(0.461472 -0.0364407 0)
(0.446544 -0.0441245 0)
(0.428753 -0.0528728 0)
(0.407792 -0.0629528 0)
(0.383312 -0.0746965 0)
(0.354925 -0.0885175 0)
(0.322225 -0.104929 0)
(0.284829 -0.124556 0)
(0.242452 -0.148134 0)
(0.195055 -0.176465 0)
(0.143096 -0.210266 0)
(0.0879414 -0.249804 0)
(0.032465 -0.294099 0)