
Running Job 1 of 1 /carc/scratch/projects/mfricke/mfricke2016402/test-programs/q-chem/water_b3lyp.in
qchem /carc/scratch/projects/mfricke/mfricke2016402/test-programs/q-chem/water_b3lyp.in_1901906.0 /carc/scratch/users/mfricke//carc/scratch/projects/mfricke/mfricke2016402/test-programs/q-chem/run-6.4-shm-4234759/scratch/ 1
/opt/local/q-chem/6.4/cpu/exe/qcprog.exe_s /carc/scratch/projects/mfricke/mfricke2016402/test-programs/q-chem/water_b3lyp.in_1901906.0 /carc/scratch/users/mfricke//carc/scratch/projects/mfricke/mfricke2016402/test-programs/q-chem/run-6.4-shm-4234759/scratch/
                  Welcome to Q-Chem
     A Quantum Leap Into The Future Of Chemistry


 Q-Chem 6.4, Q-Chem, Inc., Pleasanton, CA (2025)

 License file: /opt/local/q-chem/6.4/cpu/qcaux/license/qchem.license.dat
 Unable to validate license on hopper011 SID C0EBBD550C

