To request GPUs, add --gpus-per-node X or --gpus X, where X is the desired number of GPUs.
Job 1856684 running on hopper[011-012]
  ABINIT 9.6.1
  
-instrng: 94 lines of input have been read from file t41.in
 
 
--- !COMMENT
src_file: m_dtfil.F90
src_line: 1476
message: |
    Output file: t41.abo already exists.
...
 
 
--- !COMMENT
src_file: m_dtfil.F90
src_line: 1500
message: |
    Renaming old: t41.abo to: t41.abo0006
...
 

.Version 9.6.1 of ABINIT 
.(MPI version, prepared for a x86_64_linux_intel19.1 computer) 

.Copyright (C) 1998-2021 ABINIT group . 
 ABINIT comes with ABSOLUTELY NO WARRANTY.
 It is free software, and you are welcome to redistribute it
 under certain conditions (GNU General Public License,
 see ~abinit/COPYING or http://www.gnu.org/copyleft/gpl.txt).

 ABINIT is a project of the Universite Catholique de Louvain,
 Corning Inc. and other collaborators, see ~abinit/doc/developers/contributors.txt .
 Please read https://docs.abinit.org/theory/acknowledgments for suggested
 acknowledgments of the ABINIT effort.
 For more information, see https://www.abinit.org .

.Starting date : Wed 12 Apr 2023.
- ( at 20h32 )
  
 
 ++++++++++++++++++++++++++++++++++++++++++++++++++++++++++++++++++++++++++++++
 
 === Build Information === 
  Version       : 9.6.1
  Build target  : x86_64_linux_intel19.1
  Build date    : 20220912
 
 === Compiler Suite === 
  C compiler       : intel19.1
  C++ compiler     : gnu19.1
  Fortran compiler : intel19.1
  CFLAGS           : -g -O2
  CXXFLAGS         : -g -O2
  FCFLAGS          : -g -extend-source -nofpscomp     -I/opt/spack/opt/spack/linux-rocky ...
  FC_LDFLAGS       :   -static-intel -static-libgcc
 
 === Optimizations === 
  Debug level        : basic
  Optimization level : standard
  Architecture       : intel_xeon
 
 === Multicore === 
  Parallel build : yes
  Parallel I/O   : 
  openMP support : no
  GPU support    : 
 
 === Connectors / Fallbacks === 
  LINALG flavor  : mkl
  FFT flavor     : dfti
  HDF5           : yes
  NetCDF         : yes
  NetCDF Fortran : yes
  LibXC          : yes
  Wannier90      : yes
 
 === Experimental features === 
  Exports             : 
  GW double-precision : 
 
 ++++++++++++++++++++++++++++++++++++++++++++++++++++++++++++++++++++++++++++++
 

 ++++++++++++++++++++++++++++++++++++++++++++++++++++++++++++++++++++++++++++++
 Default optimizations:
   -O3


 Optimizations for 43_ptgroups:
   -O0


 ++++++++++++++++++++++++++++++++++++++++++++++++++++++++++++++++++++++++++++++


 ++++++++++++++++++++++++++++++++++++++++++++++++++++++++++++++++++++++++++++++
 CPP options activated during the build:

                  CC_INTEL                   CXX_GNU                  FC_INTEL
 
              HAVE_ATOMPAW                 HAVE_DFTI HAVE_FC_ALLOCATABLE_DT...
 
             HAVE_FC_ASYNC  HAVE_FC_COMMAND_ARGUMENT      HAVE_FC_COMMAND_LINE
 
        HAVE_FC_CONTIGUOUS           HAVE_FC_CPUTIME              HAVE_FC_EXIT
 
             HAVE_FC_FLUSH             HAVE_FC_GAMMA   HAVE_FC_IEEE_ARITHMETIC
 
   HAVE_FC_IEEE_EXCEPTIONS             HAVE_FC_IOMSG     HAVE_FC_ISO_C_BINDING
 
  HAVE_FC_ISO_FORTRAN_2008        HAVE_FC_LONG_LINES        HAVE_FC_MOVE_ALLOC
 
  HAVE_FC_ON_THE_FLY_SHAPE           HAVE_FC_PRIVATE         HAVE_FC_PROTECTED
 
           HAVE_FC_SHIFTLR         HAVE_FC_STREAM_IO                 HAVE_HDF5
 
        HAVE_LIBPAW_ABINIT      HAVE_LIBTETRA_ABINIT                HAVE_LIBXC
 
         HAVE_LINALG_AXPBY        HAVE_LINALG_GEMM3M         HAVE_LINALG_GEMMT
 
  HAVE_LINALG_MKL_IMATCOPY   HAVE_LINALG_MKL_OMATADD  HAVE_LINALG_MKL_OMATCOPY
 
   HAVE_LINALG_MKL_THREADS     HAVE_LINALG_SCALAPACK                  HAVE_MPI
 
                 HAVE_MPI2       HAVE_MPI_IALLGATHER       HAVE_MPI_IALLREDUCE
 
        HAVE_MPI_IALLTOALL       HAVE_MPI_IALLTOALLV           HAVE_MPI_IBCAST
 
         HAVE_MPI_IGATHERV        HAVE_MPI_INTEGER16               HAVE_MPI_IO
 
 HAVE_MPI_TYPE_CREATE_S...               HAVE_NETCDF       HAVE_NETCDF_FORTRAN
 
             HAVE_OS_LINUX         HAVE_TIMER_ABINIT            HAVE_WANNIER90
 
 ++++++++++++++++++++++++++++++++++++++++++++++++++++++++++++++++++++++++++++++

- input  file    -> t41.in
- output file    -> t41.abo
- root for input  files -> t41i
- root for output files -> t41o
 
-instrng: 94 lines of input have been read from file t41.in
 
 For atom type 1, psp file is Si_r.psp8
 For atom type 2, psp file is O.psp8
  read the values zionpsp=  4.0 , pspcod=   8 , lmax=   2
  read the values zionpsp=  6.0 , pspcod=   8 , lmax=   2
 
 inpspheads: deduce mpsang = 3, n1xccc = 2501.

======================================================= 
 invars1m : enter jdtset= 1
 
 symlatt: the Bravais lattice is hP (primitive hexagonal)
  xred   is defined in input file
 ingeo: takes atomic coordinates from input array xred
 
--- !COMMENT
src_file: m_ingeo.F90
src_line: 900
message: |
    The tolerance on symmetries =   1.000E-05 is bigger than 1.0e-8.
    In order to avoid spurious effects, the atomic coordinates have been
    symmetrized before storing them in the dataset internal variable.
    So, do not be surprised by the fact that your input variables (xcart, xred, ...)
    do not correspond exactly to the ones echoed by ABINIT, the latter being used to do the calculations.
    This is not a problem per se.
    Still, in order to avoid this symmetrization (e.g. for specific debugging/development), decrease tolsym to 1.0e-8 or lower,
    or (much preferred) use input primitive vectors that are accurate to better than 1.0e-8.
    This message will only be printed once, even if there are other datasets where tolsym is bigger than 1.0e-8.
...
 
 
 symlatt: the Bravais lattice is hP (primitive hexagonal)
 
 symlatt: the Bravais lattice is hP (primitive hexagonal)
 symspgr: spgroup= 154  P3_2 2 1   (=D3^6)
 symspgr: optical characteristics = uniaxial
 Optical axis (in reduced coordinates, real space ) :   0   0   1
 
--- !WARNING
src_file: m_mpinfo.F90
src_line: 2501
message: |
    nkpt*nsppol (9) is not a multiple of nproc_spkpt (8)
    The k-point parallelisation is inefficient. (Ignore this warning if this is not a GS run)
...
 
 
--- !WARNING
src_file: m_mpi_setup.F90
src_line: 732
message: |
    Your number of spins*k-points (=9) will not distribute correctly
    with the current number of processors (=8).
    You will leave some empty.
    YOU ARE STRONGLY ADVISED TO ACTIVATE AUTOMATIC PARALLELIZATION!
    PUT "AUTOPARAL=1" IN THE INPUT FILE.
...
 
 For input ecut=  3.600000E+01 best grid ngfft=      54      54      60
       max ecut=  4.175394E+01
 
 ==== FFT mesh ====
  FFT mesh divisions ........................    54   54   60
  Augmented FFT divisions ...................    55   55   60
  FFT algorithm .............................   512
  FFT cache size ............................    16
 getmpw: optimal value of mpw= 7899
 
 DATASET    1 : space group P3_2 2 1 (#154); Bravais hP (primitive hexag.)
 
 getdim_nloc : deduce lmnmax  =  21, lnmax  =   7,
                      lmnmaxso=  48, lnmaxso=  14.
memory: analysis of memory needs
================================================================================
 Values of the parameters that define the memory need for DATASET  1.
     intxc =       0    ionmov =       0      iscf =       7    lmnmax =       7
     lnmax =       7     mgfft =      60  mpssoang =       3    mqgrid =    3001
     natom =       9  nloc_mem =       1    nspden =       1   nspinor =       1
    nsppol =       1      nsym =       6    n1xccc =    2501    ntypat =       2
    occopt =       1   xclevel =       2
-    mband =          28        mffmem =           1         mkmem =           2
       mpw =        7899          nfft =      174960          nkpt =           9
================================================================================
P This job should need less than                      65.009 Mbytes of memory.
  Rough estimation (10% accuracy) of disk space for files :
_ WF disk file :     30.375 Mbytes ; DEN or POT disk file :      1.337 Mbytes.
================================================================================
 
 Biggest array : f_fftgr(disk), with     21.3594 MBytes.
 memana : allocated an array of     21.359 Mbytes, for testing purposes.
 memana: allocated      65.009Mbytes, for testing purposes. 
 The job will continue.
--------------------------------------------------------------------------------
------------- Echo of variables that govern the present computation ------------
--------------------------------------------------------------------------------
-
- outvars: echo of selected default values                                      
-   iomode0 =  0 , fftalg0 =512 , wfoptalg0 =  0
-
- outvars: echo of global parameters not present in the input file              
-  max_nthreads =    0
-
 -outvars: echo values of preprocessed input variables --------
 
 These variables are accessible in NetCDF format (t41o_OUT.nc)

            acell      9.2843000799E+00  9.2843000799E+00  1.0213270550E+01 Bohr
              amu      2.80855000E+01  1.59994000E+01
           diemac      4.00000000E+00
             ecut      3.60000000E+01 Hartree
-          fftalg         512
           istwfk        1    0    1    0    0    0    0    0    0
              ixc          11
           jdtset        1
              kpt      0.00000000E+00  0.00000000E+00  0.00000000E+00
                       2.50000000E-01  0.00000000E+00  0.00000000E+00
                       5.00000000E-01  0.00000000E+00  0.00000000E+00
                       2.50000000E-01  2.50000000E-01  0.00000000E+00
                       0.00000000E+00  0.00000000E+00  3.33333333E-01
                       2.50000000E-01  0.00000000E+00  3.33333333E-01
                       5.00000000E-01  0.00000000E+00  3.33333333E-01
                      -2.50000000E-01  0.00000000E+00  3.33333333E-01
                       2.50000000E-01  2.50000000E-01  3.33333333E-01
         kptrlatt        4    0    0      0    4    0      0    0    3
          kptrlen      3.06398116E+01
P           mkmem           2
            natom           9
            nband          28
           ndtset           1
            ngfft          54      54      60
             nkpt           9
            nstep         200
             nsym           6
           ntypat           2
              occ      2.000000  2.000000  2.000000  2.000000  2.000000  2.000000
                       2.000000  2.000000  2.000000  2.000000  2.000000  2.000000
                       2.000000  2.000000  2.000000  2.000000  2.000000  2.000000
                       2.000000  2.000000  2.000000  2.000000  2.000000  2.000000
                       0.000000  0.000000  0.000000  0.000000
            rprim      5.0000000000E-01 -8.6602540378E-01  0.0000000000E+00
                       5.0000000000E-01  8.6602540378E-01  0.0000000000E+00
                       0.0000000000E+00  0.0000000000E+00  1.0000000000E+00
          spgroup         154
           symrel      1  0  0   0  1  0   0  0  1       1  0  0  -1 -1  0   0  0 -1
                       0  1  0  -1 -1  0   0  0  1       0  1  0   1  0  0   0  0 -1
                      -1 -1  0   1  0  0   0  0  1      -1 -1  0   0  1  0   0  0 -1
           timopt          -1
            tnons      0.0000000  0.0000000  0.0000000     0.0000000 -0.0000000  0.0000000
                      -0.0000000  0.0000000 -0.3333333     0.0000000  0.0000000 -0.3333333
                       0.0000000  0.0000000  0.3333333     0.0000000  0.0000000  0.3333333
           tolvrs      1.00000000E-08
            typat      1  1  1  2  2  2  2  2  2
              wtk        0.02083    0.12500    0.06250    0.12500    0.04167    0.12500
                         0.12500    0.12500    0.25000
           xangst      1.1422818000E+00 -1.9784901142E+00  0.0000000000E+00
                       1.1422818000E+00  1.9784901142E+00  3.6030866667E+00
                      -2.2845636000E+00  4.0347989381E-18  1.8015433333E+00
                       1.6876292400E+00 -6.0843889532E-01  6.4855560000E-01
                      -1.3707381600E+00 -1.1573103463E+00  2.4500989333E+00
                      -3.1689108000E-01  1.7657492417E+00  4.2516422667E+00
                      -3.1689108000E-01 -1.7657492417E+00 -6.4855560000E-01
                       1.6876292400E+00  6.0843889532E-01  2.9545310667E+00
                      -1.3707381600E+00  1.1573103463E+00  1.1529877333E+00
            xcart      2.1585997686E+00 -3.7388044724E+00  0.0000000000E+00
                       2.1585997686E+00  3.7388044724E+00  6.8088470331E+00
                      -4.3171995372E+00  7.6246649943E-18  3.4044235165E+00
                       3.1891570774E+00 -1.1497828807E+00  1.2255924659E+00
                      -2.5903197223E+00 -2.1869996053E+00  4.6300159825E+00
                      -5.9883735515E-01  3.3367824861E+00  8.0344394990E+00
                      -5.9883735515E-01 -3.3367824861E+00 -1.2255924659E+00
                       3.1891570774E+00  1.1497828807E+00  5.5832545671E+00
                      -2.5903197223E+00  2.1869996053E+00  2.1788310506E+00
             xred      4.6500000000E-01 -1.1657958272E-17  0.0000000000E+00
                      -1.1657958272E-17  4.6500000000E-01  6.6666666667E-01
                      -4.6500000000E-01 -4.6500000000E-01  3.3333333333E-01
                       4.1500000000E-01  2.7200000000E-01  1.2000000000E-01
                      -1.4300000000E-01 -4.1500000000E-01  4.5333333333E-01
                      -2.7200000000E-01  1.4300000000E-01  7.8666666667E-01
                       1.4300000000E-01 -2.7200000000E-01 -1.2000000000E-01
                       2.7200000000E-01  4.1500000000E-01  5.4666666667E-01
                      -4.1500000000E-01 -1.4300000000E-01  2.1333333333E-01
            znucl       14.00000    8.00000
 
================================================================================
 
 chkinp: Checking input parameters for consistency, jdtset=   1.
 DATA TYPE INFORMATION: 
 REAL:      Data type name: REAL(DP) 
            Kind value:      8
            Precision:      15
            Smallest nonnegligible quantity relative to 1: 0.22204460E-015
            Smallest positive number:                      0.22250739E-307
            Largest representable number:                  0.17976931E+309
 INTEGER:   Data type name: INTEGER(default) 
            Kind value: 4
            Bit size:   32
            Largest representable number: 2147483647
 LOGICAL:   Data type name: LOGICAL 
            Kind value: 4
 CHARACTER: Data type name: CHARACTER             Kind value: 1

  ==== OpenMP parallelism is OFF ====
 
  ==== Using MPI-2 specifications ==== 
  MPI-IO support is ON
  xmpi_tag_ub ................       524287
  xmpi_bsize_ch ..............            1
  xmpi_bsize_int .............            4
  xmpi_bsize_sp ..............            4
  xmpi_bsize_dp ..............            8
  xmpi_bsize_spc .............            8
  xmpi_bsize_dpc .............           16
  xmpio_bsize_frm ............            4
  xmpi_address_kind ..........            8
  xmpi_offset_kind ...........            8
  MPI_WTICK ..................   3.448275862068966E-010
 
================================================================================
== DATASET  1 ==================================================================
-   mpi_nproc: 8, omp_nthreads: -1 (-1 if OMP is not activated)
-    --> not optimal distribution: autoparal keyword recommended in input file <--
 
 
--- !COMMENT
src_file: m_xgScalapack.F90
src_line: 236
message: |
    xgScalapack in auto mode
...
 
 
 getdim_nloc : deduce lmnmax  =  21, lnmax  =   7,
                      lmnmaxso=  48, lnmaxso=  14.
 Exchange-correlation functional for the present dataset will be:
  GGA: Perdew-Burke-Ernzerhof functional - ixc=11
 Citation for XC functional:
  J.P.Perdew, K.Burke, M.Ernzerhof, PRL 77, 3865 (1996)
 
 Unit cell volume ucvol=  7.6241917E+02 bohr^3
 Angles (23,13,12)=  9.00000000E+01  9.00000000E+01  1.20000000E+02 degrees
 
 getcut: wavevector=  0.0000  0.0000  0.0000  ngfft=  54  54  60
         ecut(hartree)=     36.000   => boxcut(ratio)=   2.15391
- pspini: atom type   1  psp file is Si_r.psp8
- pspatm: opening atomic psp file    Si_r.psp8
- Si    ONCVPSP  r_core=  1.60  1.72  1.92
- 14.00000   4.00000    160518                znucl, zion, pspdat
    8   11    2    4       600   0.00000      pspcod,pspxc,lmax,lloc,mmax,r2well
    5.99000000000000    4.00000000000000    0.00000000000000   rchrg,fchrg,qchrg
     nproj     2     3     2
     spin-orbit psp, extension_switch     3
        nprojso     4     3
 
--- !COMMENT
src_file: m_psp8.F90
src_line: 230
message: |
    You are reading a pseudopotential file with spin orbit projectors
     but internal variable pspso is 0
...
 
  valence charge integrates to:    3.95327060538476     
  pspatm : epsatm=    9.34878155
         --- l  ekb(1:nproj) -->
             0    0.840891    5.077806
             1    2.715487    0.601430    0.000397
             2  -10.098948   -0.937382
  spin-orbit 1
  spin-orbit 1
  spin-orbit 1
  spin-orbit 1
  spin-orbit 2
  spin-orbit 2
  spin-orbit 2
 pspatm: atomic psp has been read  and splines computed
 
- pspini: atom type   2  psp file is O.psp8
- pspatm: opening atomic psp file    O.psp8
- O     ONCVPSP  r_core=  1.36  1.46  1.26
-  8.00000   6.00000    151103                znucl, zion, pspdat
    8   11    2    4       600   0.00000      pspcod,pspxc,lmax,lloc,mmax,r2well
    5.99000000000000    4.00000000000000    0.00000000000000   rchrg,fchrg,qchrg
     nproj     2     2     1
     extension_switch     1
  valence charge integrates to:    5.99903187507575     
  pspatm : epsatm=    6.19401560
         --- l  ekb(1:nproj) -->
             0    5.257212    0.704241
             1   -5.135443   -1.451781
             2   -4.371486
 pspatm: atomic psp has been read  and splines computed
 
   3.13010104E+03                                ecore*ucvol(ha*bohr**3)
 ==== Info on pseudopotentials ====
  Norm-conserving pseudopotentials
  Number of pseudopotentials ..    2
  Number of types of atoms   ..    2
  Calculation with spin-orbit coupling 
  Max number of channels (spin-orbit included)   5
  - Atom type    1 has spin-orbit characteristics (pspso=  0)
  - Atom type    2 has spin-orbit characteristics (pspso=  0)
  Nonlocal part applied using Legendre polynomials
  Max number of non-local projectors over l and type   4
  Highest angular momentum +1 .......   3
  Max number of (l,n)   components ..  14
  Max number of (l,m,n) components ..  14
 
 Pseudo-Core Charge Info: 
   Number of radial points for pseudo-core charge .. 2501
   XC core-correction treatment (optnlxccc) ........    1
   Radius for pseudo-core charge for each type ..... 
 
  - Atom type    1 has pseudo-core radius ..  5.9900
  - Atom type    2 has pseudo-core radius ..  5.9900
 
 Info on the Q-grid used for form factors in spline form: 
   Number of q-points for radial functions ffspl ..   3001
   Number of q-points for vlspl ...................   3001
   vloc is computed in Reciprocal Space
   model core charge treated in real-space
 
  XC functional for type 1 is 11
  Pseudo valence available: yes
  XC functional for type 2 is 11
  Pseudo valence available: yes
 
 symatm: atom number 1 is reached starting at atom
   1  1  3  2  2  3
 symatm: atom number 2 is reached starting at atom
   2  3  1  1  3  2
 symatm: atom number 3 is reached starting at atom
   3  2  2  3  1  1
 symatm: atom number 4 is reached starting at atom
   4  7  5  8  6  9
 symatm: atom number 5 is reached starting at atom
   5  8  6  9  4  7
 symatm: atom number 6 is reached starting at atom
   6  9  4  7  5  8
 symatm: atom number 7 is reached starting at atom
   7  4  9  6  8  5
 symatm: atom number 8 is reached starting at atom
   8  5  7  4  9  6
 symatm: atom number 9 is reached starting at atom
   9  6  8  5  7  4
 wfconv:    28 bands initialized randomly with npw=  7899, for ikpt=     1
 wfconv:    28 bands initialized randomly with npw=  7864, for ikpt=     2
_setup2: Arith. and geom. avg. npw (full set) are    7863.729    7863.720
 initro: for itypat=  1, take pseudo charge density from pp file
 initro: for itypat=  2, take pseudo charge density from pp file
 
================================================================================
 
 getcut: wavevector=  0.0000  0.0000  0.0000  ngfft=  54  54  60
         ecut(hartree)=     36.000   => boxcut(ratio)=   2.15391
 
 1/G**2 cut-off applied in the following step : cutoff-mode = CRYSTAL
 
 1/G**2 cut-off applied in the following step : cutoff-mode = CRYSTAL
 
 1/G**2 cut-off applied in the following step : cutoff-mode = CRYSTAL
 
 ITER STEP NUMBER     1
 Max number of non-self-consistent loops: 2
 Total charge density [el/Bohr^3]
      Maximum=    1.1324E+00  at reduced coord.    0.0926    0.7222    0.9000
      Minimum=    5.2631E-04  at reduced coord.    0.4630    0.0000    0.0000
   Integrated=    4.8000E+01
 
 1/G**2 cut-off applied in the following step : cutoff-mode = CRYSTAL
 ETOT  1  -111.71427931029    -1.117E+02 1.443E-01 1.503E+03
 scprqt: <Vxc>= -3.2126170E-01 hartree
 
 Simple mixing update:
  residual square of the potential:    980.236412112415
{SCF_istep: 1 , Vnl|psi>: 560 , wall_time: '  2.90 [s] '} <<< TIME
 
 ITER STEP NUMBER     2
 Max number of non-self-consistent loops: 2
 Total charge density [el/Bohr^3]
      Maximum=    8.2387E-01  at reduced coord.    0.0926    0.7222    0.9000
      Minimum=    9.7647E-04  at reduced coord.    0.4630    0.0000    0.0000
   Integrated=    4.8000E+01
 ETOT  2  -111.76616466266    -5.189E-02 5.417E-03 1.605E+03
 scprqt: <Vxc>= -3.5473218E-01 hartree
 
 Pulay update with  1 previous iterations:
 mixing of old trial potential: alpha(m:m-4)=  0.491      0.509
{SCF_istep: 2 , Vnl|psi>: 560 , wall_time: '  2.81 [s] '} <<< TIME
 
 ITER STEP NUMBER     3
 Total charge density [el/Bohr^3]
      Maximum=    1.0006E+00  at reduced coord.    0.0926    0.7222    0.9000
      Minimum=    7.5211E-04  at reduced coord.    0.4630    0.0000    0.0000
   Integrated=    4.8000E+01
 ETOT  3  -112.35632808698    -5.902E-01 7.931E-03 6.171E+00
 scprqt: <Vxc>= -3.3598708E-01 hartree
 
 Pulay update with  2 previous iterations:
 mixing of old trial potential: alpha(m:m-4)=   1.02      0.215E-01 -0.389E-01
{SCF_istep: 3 , Vnl|psi>: 280 , wall_time: '  1.69 [s] '} <<< TIME
 
 ITER STEP NUMBER     4
 Total charge density [el/Bohr^3]
      Maximum=    9.9008E-01  at reduced coord.    0.0926    0.7222    0.9000
      Minimum=    7.7061E-04  at reduced coord.    0.4630    0.0000    0.0000
   Integrated=    4.8000E+01
 ETOT  4  -112.35939888686    -3.071E-03 3.141E-03 9.303E-02
 scprqt: <Vxc>= -3.3688787E-01 hartree
 
 Pulay update with  3 previous iterations:
 mixing of old trial potential: alpha(m:m-4)=   1.02     -0.773E-02 -0.373E-02 -0.738E-02
{SCF_istep: 4 , Vnl|psi>: 280 , wall_time: '  1.40 [s] '} <<< TIME
 
 ITER STEP NUMBER     5
 Total charge density [el/Bohr^3]
      Maximum=    9.9038E-01  at reduced coord.    0.0926    0.7222    0.9000
      Minimum=    7.7183E-04  at reduced coord.    0.4630    0.0000    0.0000
   Integrated=    4.8000E+01
 ETOT  5  -112.35941292646    -1.404E-05 1.174E-03 3.101E-03
 scprqt: <Vxc>= -3.3694929E-01 hartree
 
 Pulay update with  4 previous iterations:
 mixing of old trial potential: alpha(m:m-4)=   1.03     -0.112E-01 -0.230E-01  0.165E-02  0.324E-02
{SCF_istep: 5 , Vnl|psi>: 280 , wall_time: '  1.39 [s] '} <<< TIME
 
 ITER STEP NUMBER     6
 Total charge density [el/Bohr^3]
      Maximum=    9.9017E-01  at reduced coord.    0.0926    0.7222    0.9000
      Minimum=    7.7169E-04  at reduced coord.    0.4630    0.0000    0.0000
   Integrated=    4.8000E+01
 ETOT  6  -112.35941330709    -3.806E-07 1.051E-03 1.477E-04
 scprqt: <Vxc>= -3.3694578E-01 hartree
 
 Pulay update with  5 previous iterations:
 mixing of old trial potential: alpha(m:m-4)=  0.973      0.592E-01 -0.313E-01 -0.850E-03 -0.891E-04
{SCF_istep: 6 , Vnl|psi>: 280 , wall_time: '  1.39 [s] '} <<< TIME
 
 ITER STEP NUMBER     7
 Total charge density [el/Bohr^3]
      Maximum=    9.9020E-01  at reduced coord.    0.0926    0.7222    0.9000
      Minimum=    7.7171E-04  at reduced coord.    0.4630    0.0000    0.0000
   Integrated=    4.8000E+01
 ETOT  7  -112.35941332418    -1.709E-08 3.754E-04 1.014E-05
 scprqt: <Vxc>= -3.3694558E-01 hartree
 
 Pulay update with  6 previous iterations:
 mixing of old trial potential: alpha(m:m-4)=   1.14     -0.108     -0.378E-01  0.174E-02  0.327E-05
{SCF_istep: 7 , Vnl|psi>: 280 , wall_time: '  1.39 [s] '} <<< TIME
 
 ITER STEP NUMBER     8
 Total charge density [el/Bohr^3]
      Maximum=    9.9021E-01  at reduced coord.    0.0926    0.7222    0.9000
      Minimum=    7.7170E-04  at reduced coord.    0.4630    0.0000    0.0000
   Integrated=    4.8000E+01
 ETOT  8  -112.35941332517    -9.827E-10 3.753E-04 1.114E-07
 scprqt: <Vxc>= -3.3694450E-01 hartree
 
 Pulay update with  7 previous iterations:
 mixing of old trial potential: alpha(m:m-4)=   1.18     -0.198      0.960E-02  0.607E-02 -0.234E-03
{SCF_istep: 8 , Vnl|psi>: 280 , wall_time: '  1.39 [s] '} <<< TIME
 
 ITER STEP NUMBER     9
 Total charge density [el/Bohr^3]
      Maximum=    9.9021E-01  at reduced coord.    0.0926    0.7222    0.9000
      Minimum=    7.7170E-04  at reduced coord.    0.4630    0.0000    0.0000
   Integrated=    4.8000E+01
 ETOT  9  -112.35941332518    -1.495E-11 1.084E-04 2.298E-09
 scprqt: <Vxc>= -3.3694454E-01 hartree
 
 At SCF step    9       vres2   =  2.30E-09 < tolvrs=  1.00E-08 =>converged.
 
 -------------------------------------------------------------------------------------------------
 Ekinetic   = :     7.359505E+01 Ha ,    2.002623E+03 eV
 Evext_l    = :    -1.139609E+02 Ha ,   -3.101033E+03 eV
 Evext_nl   = :    -1.491301E+01 Ha ,   -4.058037E+02 eV
 Epsp_core  = :     4.105486E+00 Ha ,    1.117159E+02 eV
 Ehartree   = :     3.870411E+01 Ha ,    1.053192E+03 eV
 Exc_ks     = :    -3.038335E+01 Ha ,   -8.267730E+02 eV
 Enn        = :    -6.950683E+01 Ha ,   -1.891377E+03 eV
 -------------------------------------------------------------------------------------------------
 Etot       = :    -1.123594E+02 Ha ,   -3.057455E+03 eV
 -------------------------------------------------------------------------------------------------
 
 Cartesian components of stress tensor (hartree/bohr^3)
  sigma(1 1)= -1.73427182E-04  sigma(3 2)=  0.00000000E+00
  sigma(2 2)= -1.73427182E-04  sigma(3 1)=  0.00000000E+00
  sigma(3 3)= -2.25797376E-04  sigma(2 1)=  0.00000000E+00
 
 
 fftdatar_write: About to write data to: t41o_DS1_DEN with iomode: IO_MODE_FORTRAN
 IO operation completed. cpu:  0.00 [s] , wall:  0.01 [s] <<< TIME
- Creating netcdf file WITHOUT MPI-IO support: t41o_DS1_GSR.nc
 Integrated electronic density in atomic spheres:
 ------------------------------------------------
 Atom  Sphere_radius  Integrated_density
    1        2.00000          2.39674682
    2        2.00000          2.39674682
    3        2.00000          2.39674682
    4        2.00000          6.54744923
    5        2.00000          6.54744923
    6        2.00000          6.54744923
    7        2.00000          6.54744923
    8        2.00000          6.54744923
    9        2.00000          6.54744923
================================================================================
 
 ----iterations are completed or convergence reached----
 
 
 === Gap info ===
  >>>> For spin  1
   Minimum direct gap =   6.3236 [eV], located at k-point      :   0.0000  0.0000  0.0000
   Fundamental gap    =   6.0641 [eV], Top of valence bands at :   0.2500  0.2500  0.0000
                                       Bottom of conduction at :   0.0000  0.0000  0.0000
 Mean square residual over all n,k,spin=   16.243E-07; max=  10.844E-05
   0.0000  0.0000  0.0000    1  1.27882E-06 kpt; spin; max resid(k); each band:
  1.46E-13 1.23E-13 1.25E-13 1.14E-13 1.01E-13 1.01E-13 4.06E-14 4.06E-14
  2.29E-14 2.66E-14 3.29E-14 3.30E-14 3.26E-14 3.20E-14 7.16E-14 1.12E-13
  7.20E-14 7.19E-14 2.53E-14 4.42E-14 4.58E-14 4.25E-14 8.27E-14 8.14E-14
  1.58E-13 3.83E-10 1.28E-06 3.25E-07
   0.2500  0.0000  0.0000    1  1.08443E-04 kpt; spin; max resid(k); each band:
  1.59E-13 1.33E-13 1.29E-13 1.15E-13 9.86E-14 1.03E-13 4.23E-14 4.21E-14
  3.22E-14 2.53E-14 2.60E-14 2.82E-14 6.50E-14 5.29E-14 6.65E-14 5.54E-14
  6.20E-14 7.05E-14 4.27E-14 4.76E-14 5.16E-14 5.75E-14 6.84E-14 7.51E-14
  1.28E-12 1.11E-07 1.70E-06 1.08E-04
   0.5000  0.0000  0.0000    1  2.30710E-06 kpt; spin; max resid(k); each band:
  1.57E-13 1.48E-13 1.27E-13 1.18E-13 9.99E-14 9.96E-14 4.56E-14 4.76E-14
  3.69E-14 2.83E-14 2.39E-14 3.31E-14 8.90E-14 7.05E-14 6.12E-14 2.82E-14
  3.57E-14 5.27E-14 5.79E-14 5.03E-14 6.27E-14 5.61E-14 5.67E-14 6.67E-14
  3.73E-10 5.45E-08 2.31E-06 8.05E-08
   0.2500  0.2500  0.0000    1  1.36508E-05 kpt; spin; max resid(k); each band:
  1.59E-13 1.43E-13 1.37E-13 1.12E-13 1.06E-13 9.86E-14 4.62E-14 4.28E-14
  4.05E-14 2.51E-14 2.96E-14 2.52E-14 7.99E-14 6.51E-14 7.26E-14 4.30E-14
  3.40E-14 5.47E-14 3.52E-14 6.97E-14 6.76E-14 5.60E-14 5.70E-14 6.56E-14
  1.80E-10 1.36E-06 8.12E-07 1.37E-05
   0.0000  0.0000  0.3333    1  1.11681E-07 kpt; spin; max resid(k); each band:
  1.49E-13 1.46E-13 1.19E-13 1.07E-13 1.17E-13 6.01E-14 3.42E-14 4.06E-14
  2.44E-14 3.14E-14 3.27E-14 2.33E-14 3.88E-14 3.83E-14 8.11E-14 4.71E-14
  6.88E-14 1.00E-13 4.10E-14 3.72E-14 1.99E-14 4.13E-14 1.07E-13 4.67E-14
  7.04E-13 1.09E-08 1.40E-09 1.12E-07
   0.2500  0.0000  0.3333    1  2.22499E-07 kpt; spin; max resid(k); each band:
  1.61E-13 1.56E-13 1.22E-13 1.10E-13 1.12E-13 6.83E-14 3.83E-14 4.24E-14
  3.58E-14 2.76E-14 3.03E-14 2.69E-14 4.77E-14 7.29E-14 5.11E-14 5.00E-14
  6.63E-14 6.55E-14 5.34E-14 4.09E-14 3.18E-14 5.06E-14 1.07E-13 5.58E-14
  2.17E-11 8.17E-08 1.33E-08 2.22E-07
   0.5000  0.0000  0.3333    1  1.08065E-04 kpt; spin; max resid(k); each band:
  1.75E-13 1.61E-13 1.22E-13 1.08E-13 1.13E-13 8.26E-14 4.16E-14 4.39E-14
  4.12E-14 2.91E-14 2.87E-14 3.22E-14 7.08E-14 5.72E-14 6.12E-14 5.36E-14
  6.81E-14 4.17E-14 4.76E-14 6.03E-14 3.67E-14 6.53E-14 5.53E-14 8.01E-14
  2.77E-09 4.20E-08 1.12E-06 1.08E-04
  -0.2500  0.0000  0.3333    1  2.53451E-05 kpt; spin; max resid(k); each band:
  1.59E-13 1.57E-13 1.19E-13 1.18E-13 1.04E-13 7.55E-14 3.79E-14 4.36E-14
  3.56E-14 2.88E-14 2.85E-14 3.01E-14 5.88E-14 5.99E-14 4.64E-14 5.43E-14
  7.02E-14 7.33E-14 4.16E-14 4.16E-14 4.08E-14 5.57E-14 7.17E-14 7.82E-14
  2.30E-11 1.21E-05 1.23E-05 2.53E-05
   0.2500  0.2500  0.3333    1  7.90771E-05 kpt; spin; max resid(k); each band:
  1.77E-13 1.58E-13 1.28E-13 1.14E-13 1.10E-13 9.00E-14 4.29E-14 4.25E-14
  4.10E-14 3.19E-14 3.08E-14 2.79E-14 6.34E-14 5.96E-14 6.53E-14 4.66E-14
  6.49E-14 4.93E-14 6.28E-14 4.56E-14 5.62E-14 5.98E-14 6.50E-14 8.22E-14
  2.52E-08 1.08E-05 2.99E-05 7.91E-05
 
   outwf: writing wavefunctions to: t41o_DS1_WFK with iomode: IO_MODE_FORTRAN_MASTER
 WFK output completed. cpu:  0.03 [s] , wall:  0.07 [s] <<< TIME
 prteigrs : about to open file t41o_DS1_EIG
 Fermi (or HOMO) energy (hartree) =   0.00705   Average Vxc (hartree)=  -0.33694
 Eigenvalues (hartree) for nkpt=   9  k points:
 kpt#   1, nband= 28, wtk=  0.02083, kpt=  0.0000  0.0000  0.0000 (reduced coord)
  -0.70367   -0.64749   -0.64749   -0.62352   -0.62211   -0.62211   -0.29541   -0.29541
  -0.19292   -0.19033   -0.18464   -0.18464   -0.09991   -0.09991   -0.09000   -0.08355
  -0.04808   -0.04808   -0.04472   -0.02843   -0.02843   -0.01711   -0.00249   -0.00249
   0.22990    0.35174    0.35175    0.36676
 kpt#   2, nband= 28, wtk=  0.12500, kpt=  0.2500  0.0000  0.0000 (reduced coord)
  -0.69712   -0.65495   -0.64648   -0.62522   -0.62337   -0.62253   -0.29797   -0.28131
  -0.19554   -0.19365   -0.18965   -0.17425   -0.10704   -0.09564   -0.08840   -0.07311
  -0.06678   -0.05012   -0.04705   -0.03203   -0.02809   -0.02309   -0.00044    0.00298
   0.26234    0.35163    0.35398    0.37215
 kpt#   3, nband= 28, wtk=  0.06250, kpt=  0.5000  0.0000  0.0000 (reduced coord)
  -0.68566   -0.66801   -0.64535   -0.62605   -0.62452   -0.62326   -0.30039   -0.26318
  -0.20881   -0.19177   -0.19172   -0.16286   -0.10524   -0.09858   -0.09108   -0.07584
  -0.06837   -0.05661   -0.05178   -0.03284   -0.03087   -0.02022   -0.00208    0.00698
   0.31329    0.33917    0.36577    0.36883
 kpt#   4, nband= 28, wtk=  0.12500, kpt=  0.2500  0.2500  0.0000 (reduced coord)
  -0.68598   -0.66710   -0.64627   -0.62593   -0.62430   -0.62326   -0.30141   -0.25836
  -0.21883   -0.19110   -0.18653   -0.16291   -0.10432   -0.09794   -0.09272   -0.07177
  -0.06990   -0.05694   -0.04694   -0.04247   -0.03187   -0.01531   -0.00302    0.00705
   0.30800    0.35501    0.35576    0.38300
 kpt#   5, nband= 28, wtk=  0.04167, kpt=  0.0000  0.0000  0.3333 (reduced coord)
  -0.69579   -0.67457   -0.62724   -0.62339   -0.62296   -0.62125   -0.33019   -0.24545
  -0.20695   -0.19651   -0.19480   -0.16765   -0.10030   -0.09036   -0.08717   -0.07189
  -0.06049   -0.05605   -0.05089   -0.04821   -0.03298   -0.00769    0.00238    0.00519
   0.26624    0.33005    0.34999    0.35307
 kpt#   6, nband= 28, wtk=  0.12500, kpt=  0.2500  0.0000  0.3333 (reduced coord)
  -0.69043   -0.67219   -0.63558   -0.62504   -0.62414   -0.62213   -0.31582   -0.25044
  -0.21690   -0.19186   -0.18412   -0.17231   -0.10766   -0.09460   -0.08627   -0.07508
  -0.06455   -0.05164   -0.04722   -0.03948   -0.02801   -0.01563   -0.00168    0.00198
   0.29084    0.33984    0.35128    0.36291
 kpt#   7, nband= 28, wtk=  0.12500, kpt=  0.5000  0.0000  0.3333 (reduced coord)
  -0.68375   -0.66707   -0.64909   -0.62645   -0.62441   -0.62287   -0.29642   -0.25993
  -0.22359   -0.18995   -0.17768   -0.17320   -0.10847   -0.10714   -0.08268   -0.07521
  -0.06460   -0.05290   -0.04177   -0.03401   -0.02866   -0.01623   -0.01297    0.00264
   0.32887    0.34509    0.36335    0.37833
 kpt#   8, nband= 28, wtk=  0.12500, kpt= -0.2500  0.0000  0.3333 (reduced coord)
  -0.69054   -0.67189   -0.63634   -0.62501   -0.62328   -0.62245   -0.31587   -0.25056
  -0.21685   -0.19235   -0.18457   -0.17062   -0.10742   -0.09369   -0.08613   -0.07817
  -0.06719   -0.04891   -0.04412   -0.04076   -0.02691   -0.01793   -0.00522    0.00600
   0.28907    0.34710    0.35371    0.36437
 kpt#   9, nband= 28, wtk=  0.25000, kpt=  0.2500  0.2500  0.3333 (reduced coord)
  -0.68360   -0.66777   -0.64810   -0.62616   -0.62484   -0.62321   -0.29629   -0.25742
  -0.22816   -0.18840   -0.17816   -0.17327   -0.11011   -0.10086   -0.08824   -0.07309
  -0.06328   -0.05635   -0.03994   -0.03366   -0.02563   -0.01990   -0.00897   -0.00120
   0.32368    0.35440    0.36220    0.37982
 Total charge density [el/Bohr^3]
      Maximum=    9.9021E-01  at reduced coord.    0.0926    0.7222    0.9000
 Next maximum=    9.9021E-01  at reduced coord.    0.7222    0.0926    0.7667
      Minimum=    7.7170E-04  at reduced coord.    0.4630    0.0000    0.0000
 Next minimum=    7.7170E-04  at reduced coord.    0.5370    0.5370    0.3333
   Integrated=    4.8000E+01
 
 Cartesian components of stress tensor (hartree/bohr^3)
  sigma(1 1)= -1.73427182E-04  sigma(3 2)=  0.00000000E+00
  sigma(2 2)= -1.73427182E-04  sigma(3 1)=  0.00000000E+00
  sigma(3 3)= -2.25797376E-04  sigma(2 1)=  0.00000000E+00
 
-Cartesian components of stress tensor (GPa)         [Pressure=  5.6160E+00 GPa]
- sigma(1 1)= -5.10240301E+00  sigma(3 2)=  0.00000000E+00
- sigma(2 2)= -5.10240301E+00  sigma(3 1)=  0.00000000E+00
- sigma(3 3)= -6.64318703E+00  sigma(2 1)=  0.00000000E+00
 
== END DATASET(S) ==============================================================
================================================================================
  
 -outvars: echo values of variables after computation  --------
 
 These variables are accessible in NetCDF format (t41o_OUT.nc)

            acell      9.2843000799E+00  9.2843000799E+00  1.0213270550E+01 Bohr
              amu      2.80855000E+01  1.59994000E+01
           diemac      4.00000000E+00
             ecut      3.60000000E+01 Hartree
           etotal1    -1.1235941333E+02
            fcart1    -7.7538683437E-04  1.3430093927E-03  1.9274705611E-19
                      -7.7538683437E-04 -1.3430093927E-03  1.9274705289E-19
                       1.5507736687E-03  9.2299897633E-20  1.9274705289E-19
                      -7.2208271650E-03  9.7236182781E-04 -8.7939338471E-03
                       4.4525036270E-03  5.7672388473E-03 -8.7939338471E-03
                       2.7683235379E-03 -6.7396006751E-03 -8.7939338471E-03
                       2.7683235379E-03  6.7396006751E-03  8.7939338471E-03
                      -7.2208271650E-03 -9.7236182781E-04  8.7939338471E-03
                       4.4525036270E-03 -5.7672388473E-03  8.7939338471E-03
-          fftalg         512
           istwfk        1    0    1    0    0    0    0    0    0
              ixc          11
           jdtset        1
              kpt      0.00000000E+00  0.00000000E+00  0.00000000E+00
                       2.50000000E-01  0.00000000E+00  0.00000000E+00
                       5.00000000E-01  0.00000000E+00  0.00000000E+00
                       2.50000000E-01  2.50000000E-01  0.00000000E+00
                       0.00000000E+00  0.00000000E+00  3.33333333E-01
                       2.50000000E-01  0.00000000E+00  3.33333333E-01
                       5.00000000E-01  0.00000000E+00  3.33333333E-01
                      -2.50000000E-01  0.00000000E+00  3.33333333E-01
                       2.50000000E-01  2.50000000E-01  3.33333333E-01
         kptrlatt        4    0    0      0    4    0      0    0    3
          kptrlen      3.06398116E+01
P           mkmem           2
            natom           9
            nband          28
           ndtset           1
            ngfft          54      54      60
             nkpt           9
            nstep         200
             nsym           6
           ntypat           2
              occ      2.000000  2.000000  2.000000  2.000000  2.000000  2.000000
                       2.000000  2.000000  2.000000  2.000000  2.000000  2.000000
                       2.000000  2.000000  2.000000  2.000000  2.000000  2.000000
                       2.000000  2.000000  2.000000  2.000000  2.000000  2.000000
                       0.000000  0.000000  0.000000  0.000000
            rprim      5.0000000000E-01 -8.6602540378E-01  0.0000000000E+00
                       5.0000000000E-01  8.6602540378E-01  0.0000000000E+00
                       0.0000000000E+00  0.0000000000E+00  1.0000000000E+00
          spgroup         154
           strten1    -1.7342718249E-04 -1.7342718244E-04 -2.2579737577E-04
                       0.0000000000E+00  0.0000000000E+00  0.0000000000E+00
           symrel      1  0  0   0  1  0   0  0  1       1  0  0  -1 -1  0   0  0 -1
                       0  1  0  -1 -1  0   0  0  1       0  1  0   1  0  0   0  0 -1
                      -1 -1  0   1  0  0   0  0  1      -1 -1  0   0  1  0   0  0 -1
           timopt          -1
            tnons      0.0000000  0.0000000  0.0000000     0.0000000 -0.0000000  0.0000000
                      -0.0000000  0.0000000 -0.3333333     0.0000000  0.0000000 -0.3333333
                       0.0000000  0.0000000  0.3333333     0.0000000  0.0000000  0.3333333
           tolvrs      1.00000000E-08
            typat      1  1  1  2  2  2  2  2  2
              wtk        0.02083    0.12500    0.06250    0.12500    0.04167    0.12500
                         0.12500    0.12500    0.25000
           xangst      1.1422818000E+00 -1.9784901142E+00  0.0000000000E+00
                       1.1422818000E+00  1.9784901142E+00  3.6030866667E+00
                      -2.2845636000E+00  4.0347989381E-18  1.8015433333E+00
                       1.6876292400E+00 -6.0843889532E-01  6.4855560000E-01
                      -1.3707381600E+00 -1.1573103463E+00  2.4500989333E+00
                      -3.1689108000E-01  1.7657492417E+00  4.2516422667E+00
                      -3.1689108000E-01 -1.7657492417E+00 -6.4855560000E-01
                       1.6876292400E+00  6.0843889532E-01  2.9545310667E+00
                      -1.3707381600E+00  1.1573103463E+00  1.1529877333E+00
            xcart      2.1585997686E+00 -3.7388044724E+00  0.0000000000E+00
                       2.1585997686E+00  3.7388044724E+00  6.8088470331E+00
                      -4.3171995372E+00  7.6246649943E-18  3.4044235165E+00
                       3.1891570774E+00 -1.1497828807E+00  1.2255924659E+00
                      -2.5903197223E+00 -2.1869996053E+00  4.6300159825E+00
                      -5.9883735515E-01  3.3367824861E+00  8.0344394990E+00
                      -5.9883735515E-01 -3.3367824861E+00 -1.2255924659E+00
                       3.1891570774E+00  1.1497828807E+00  5.5832545671E+00
                      -2.5903197223E+00  2.1869996053E+00  2.1788310506E+00
             xred      4.6500000000E-01 -1.1657958272E-17  0.0000000000E+00
                      -1.1657958272E-17  4.6500000000E-01  6.6666666667E-01
                      -4.6500000000E-01 -4.6500000000E-01  3.3333333333E-01
                       4.1500000000E-01  2.7200000000E-01  1.2000000000E-01
                      -1.4300000000E-01 -4.1500000000E-01  4.5333333333E-01
                      -2.7200000000E-01  1.4300000000E-01  7.8666666667E-01
                       1.4300000000E-01 -2.7200000000E-01 -1.2000000000E-01
                       2.7200000000E-01  4.1500000000E-01  5.4666666667E-01
                      -4.1500000000E-01 -1.4300000000E-01  2.1333333333E-01
            znucl       14.00000    8.00000
 
================================================================================
  
 
 timana: WARNING -
  One among cpu, wall and ncount is negative.
  Timing section #1301, name :  cgwf_cprj%other                 
  CPU =   -1.312937E+01, Wall=   -1.317484E+01 ncount=     0 flops=    0.000000E+00

================================================================================

 Suggested references for the acknowledgment of ABINIT usage.

 The users of ABINIT have little formal obligations with respect to the ABINIT group
 (those specified in the GNU General Public License, http://www.gnu.org/copyleft/gpl.txt).
 However, it is common practice in the scientific literature,
 to acknowledge the efforts of people that have made the research possible.
 In this spirit, please find below suggested citations of work written by ABINIT developers,
 corresponding to implementations inside of ABINIT that you have used in the present run.
 Note also that it will be of great value to readers of publications presenting these results,
 to read papers enabling them to understand the theoretical formalism and details
 of the ABINIT implementation.
 For information on why they are suggested, see also https://docs.abinit.org/theory/acknowledgments.
-
- [1] The Abinit project: Impact, environment and recent developments.
- Computer Phys. Comm. 248, 107042 (2020).
- X.Gonze, B. Amadon, G. Antonius, F.Arnardi, L.Baguet, J.-M.Beuken,
- J.Bieder, F.Bottin, J.Bouchet, E.Bousquet, N.Brouwer, F.Bruneval,
- G.Brunin, T.Cavignac, J.-B. Charraud, Wei Chen, M.Cote, S.Cottenier,
- J.Denier, G.Geneste, Ph.Ghosez, M.Giantomassi, Y.Gillet, O.Gingras,
- D.R.Hamann, G.Hautier, Xu He, N.Helbig, N.Holzwarth, Y.Jia, F.Jollet,
- W.Lafargue-Dit-Hauret, K.Lejaeghere, M.A.L.Marques, A.Martin, C.Martins,
- H.P.C. Miranda, F.Naccarato, K. Persson, G.Petretto, V.Planes, Y.Pouillon,
- S.Prokhorenko, F.Ricci, G.-M.Rignanese, A.H.Romero, M.M.Schmitt, M.Torrent,
- M.J.van Setten, B.Van Troeye, M.J.Verstraete, G.Zerah and J.W.Zwanzig
- Comment: the fifth generic paper describing the ABINIT project.
- Note that a version of this paper, that is not formatted for Computer Phys. Comm. 
- is available at https://www.abinit.org/sites/default/files/ABINIT20.pdf .
- The licence allows the authors to put it on the Web.
- DOI and bibtex: see https://docs.abinit.org/theory/bibliography/#gonze2020
-
- [2] Optimized norm-conserving Vanderbilt pseudopotentials.
- D.R. Hamann, Phys. Rev. B 88, 085117 (2013).
- Comment: Some pseudopotential generated using the ONCVPSP code were used.
- DOI and bibtex: see https://docs.abinit.org/theory/bibliography/#hamann2013
-
- [3] ABINIT: Overview, and focus on selected capabilities
- J. Chem. Phys. 152, 124102 (2020).
- A. Romero, D.C. Allan, B. Amadon, G. Antonius, T. Applencourt, L.Baguet,
- J.Bieder, F.Bottin, J.Bouchet, E.Bousquet, F.Bruneval,
- G.Brunin, D.Caliste, M.Cote,
- J.Denier, C. Dreyer, Ph.Ghosez, M.Giantomassi, Y.Gillet, O.Gingras,
- D.R.Hamann, G.Hautier, F.Jollet, G. Jomard,
- A.Martin, 
- H.P.C. Miranda, F.Naccarato, G.Petretto, N.A. Pike, V.Planes,
- S.Prokhorenko, T. Rangel, F.Ricci, G.-M.Rignanese, M.Royo, M.Stengel, M.Torrent,
- M.J.van Setten, B.Van Troeye, M.J.Verstraete, J.Wiktor, J.W.Zwanziger, and X.Gonze.
- Comment: a global overview of ABINIT, with focus on selected capabilities .
- Note that a version of this paper, that is not formatted for J. Chem. Phys 
- is available at https://www.abinit.org/sites/default/files/ABINIT20_JPC.pdf .
- The licence allows the authors to put it on the Web.
- DOI and bibtex: see https://docs.abinit.org/theory/bibliography/#romero2020
-
- [4] Recent developments in the ABINIT software package.
- Computer Phys. Comm. 205, 106 (2016).
- X.Gonze, F.Jollet, F.Abreu Araujo, D.Adams, B.Amadon, T.Applencourt,
- C.Audouze, J.-M.Beuken, J.Bieder, A.Bokhanchuk, E.Bousquet, F.Bruneval
- D.Caliste, M.Cote, F.Dahm, F.Da Pieve, M.Delaveau, M.Di Gennaro,
- B.Dorado, C.Espejo, G.Geneste, L.Genovese, A.Gerossier, M.Giantomassi,
- Y.Gillet, D.R.Hamann, L.He, G.Jomard, J.Laflamme Janssen, S.Le Roux,
- A.Levitt, A.Lherbier, F.Liu, I.Lukacevic, A.Martin, C.Martins,
- M.J.T.Oliveira, S.Ponce, Y.Pouillon, T.Rangel, G.-M.Rignanese,
- A.H.Romero, B.Rousseau, O.Rubel, A.A.Shukri, M.Stankovski, M.Torrent,
- M.J.Van Setten, B.Van Troeye, M.J.Verstraete, D.Waroquier, J.Wiktor,
- B.Xu, A.Zhou, J.W.Zwanziger.
- Comment: the fourth generic paper describing the ABINIT project.
- Note that a version of this paper, that is not formatted for Computer Phys. Comm. 
- is available at https://www.abinit.org/sites/default/files/ABINIT16.pdf .
- The licence allows the authors to put it on the Web.
- DOI and bibtex: see https://docs.abinit.org/theory/bibliography/#gonze2016
-
- And optionally:
-
- [5] ABINIT: First-principles approach of materials and nanosystem properties.
- Computer Phys. Comm. 180, 2582-2615 (2009).
- X. Gonze, B. Amadon, P.-M. Anglade, J.-M. Beuken, F. Bottin, P. Boulanger, F. Bruneval,
- D. Caliste, R. Caracas, M. Cote, T. Deutsch, L. Genovese, Ph. Ghosez, M. Giantomassi
- S. Goedecker, D.R. Hamann, P. Hermet, F. Jollet, G. Jomard, S. Leroux, M. Mancini, S. Mazevet,
- M.J.T. Oliveira, G. Onida, Y. Pouillon, T. Rangel, G.-M. Rignanese, D. Sangalli, R. Shaltaf,
- M. Torrent, M.J. Verstraete, G. Zerah, J.W. Zwanziger
- Comment: the third generic paper describing the ABINIT project.
- Note that a version of this paper, that is not formatted for Computer Phys. Comm. 
- is available at https://www.abinit.org/sites/default/files/ABINIT_CPC_v10.pdf .
- The licence allows the authors to put it on the Web.
- DOI and bibtex: see https://docs.abinit.org/theory/bibliography/#gonze2009
 Proc.   0 individual time (sec): cpu=         16.8  wall=         17.1
 
 Calculation completed.
.Delivered   0 WARNINGs and   0 COMMENTs to log file.

--- !FinalSummary
program: abinit
version: 9.6.1
start_datetime: Wed Apr 12 20:32:28 2023
end_datetime: Wed Apr 12 20:32:45 2023
overall_cpu_time:         135.7
overall_wall_time:         137.0
exit_requested_by_user: no 
timelimit: 0
pseudos: 
    Si  : 72a6e885b1ac02cd8530f7649e452e4a
    O   : 733e923716a9eadd6cde8fc80d866281
usepaw: 0
mpi_procs: 8
omp_threads: 1
num_warnings: 0
num_comments: 0
...
