
.Version 9.6.1 of ABINIT 
.(MPI version, prepared for a x86_64_linux_intel19.1 computer) 

.Copyright (C) 1998-2021 ABINIT group . 
 ABINIT comes with ABSOLUTELY NO WARRANTY.
 It is free software, and you are welcome to redistribute it
 under certain conditions (GNU General Public License,
 see ~abinit/COPYING or http://www.gnu.org/copyleft/gpl.txt).

 ABINIT is a project of the Universite Catholique de Louvain,
 Corning Inc. and other collaborators, see ~abinit/doc/developers/contributors.txt .
 Please read https://docs.abinit.org/theory/acknowledgments for suggested
 acknowledgments of the ABINIT effort.
 For more information, see https://www.abinit.org .

.Starting date : Wed 12 Apr 2023.
- ( at 22h29 )
  
- input  file    -> t41.in
- output file    -> t41.abo
- root for input  files -> t41i
- root for output files -> t41o
 
 
 DATASET    1 : space group P3_2 2 1 (#154); Bravais hP (primitive hexag.)
================================================================================
 Values of the parameters that define the memory need for DATASET  1.
     intxc =       0    ionmov =       0      iscf =       7    lmnmax =       7
     lnmax =       7     mgfft =      60  mpssoang =       3    mqgrid =    3001
     natom =       9  nloc_mem =       1    nspden =       1   nspinor =       1
    nsppol =       1      nsym =       6    n1xccc =    2501    ntypat =       2
    occopt =       1   xclevel =       2
-    mband =          28        mffmem =           1         mkmem =           1
       mpw =        7899          nfft =      174960          nkpt =           9
================================================================================
P This job should need less than                      61.544 Mbytes of memory.
  Rough estimation (10% accuracy) of disk space for files :
_ WF disk file :     30.375 Mbytes ; DEN or POT disk file :      1.337 Mbytes.
================================================================================
 
--------------------------------------------------------------------------------
------------- Echo of variables that govern the present computation ------------
--------------------------------------------------------------------------------
-
- outvars: echo of selected default values                                      
-   iomode0 =  0 , fftalg0 =512 , wfoptalg0 =  0
-
- outvars: echo of global parameters not present in the input file              
-  max_nthreads =    0
-
 -outvars: echo values of preprocessed input variables --------
            acell      9.2843000799E+00  9.2843000799E+00  1.0213270550E+01 Bohr
              amu      2.80855000E+01  1.59994000E+01
           diemac      4.00000000E+00
             ecut      3.60000000E+01 Hartree
-          fftalg         512
           istwfk        1    0    1    0    0    0    0    0    0
              ixc          11
           jdtset        1
              kpt      0.00000000E+00  0.00000000E+00  0.00000000E+00
                       2.50000000E-01  0.00000000E+00  0.00000000E+00
                       5.00000000E-01  0.00000000E+00  0.00000000E+00
                       2.50000000E-01  2.50000000E-01  0.00000000E+00
                       0.00000000E+00  0.00000000E+00  3.33333333E-01
                       2.50000000E-01  0.00000000E+00  3.33333333E-01
                       5.00000000E-01  0.00000000E+00  3.33333333E-01
                      -2.50000000E-01  0.00000000E+00  3.33333333E-01
                       2.50000000E-01  2.50000000E-01  3.33333333E-01
         kptrlatt        4    0    0      0    4    0      0    0    3
          kptrlen      3.06398116E+01
P           mkmem           1
            natom           9
            nband          28
           ndtset           1
            ngfft          54      54      60
             nkpt           9
            nstep         200
             nsym           6
           ntypat           2
              occ      2.000000  2.000000  2.000000  2.000000  2.000000  2.000000
                       2.000000  2.000000  2.000000  2.000000  2.000000  2.000000
                       2.000000  2.000000  2.000000  2.000000  2.000000  2.000000
                       2.000000  2.000000  2.000000  2.000000  2.000000  2.000000
                       0.000000  0.000000  0.000000  0.000000
            rprim      5.0000000000E-01 -8.6602540378E-01  0.0000000000E+00
                       5.0000000000E-01  8.6602540378E-01  0.0000000000E+00
                       0.0000000000E+00  0.0000000000E+00  1.0000000000E+00
          spgroup         154
           symrel      1  0  0   0  1  0   0  0  1       1  0  0  -1 -1  0   0  0 -1
                       0  1  0  -1 -1  0   0  0  1       0  1  0   1  0  0   0  0 -1
                      -1 -1  0   1  0  0   0  0  1      -1 -1  0   0  1  0   0  0 -1
           timopt          -1
            tnons      0.0000000  0.0000000  0.0000000     0.0000000 -0.0000000  0.0000000
                      -0.0000000  0.0000000 -0.3333333     0.0000000  0.0000000 -0.3333333
                       0.0000000  0.0000000  0.3333333     0.0000000  0.0000000  0.3333333
           tolvrs      1.00000000E-08
            typat      1  1  1  2  2  2  2  2  2
              wtk        0.02083    0.12500    0.06250    0.12500    0.04167    0.12500
                         0.12500    0.12500    0.25000
           xangst      1.1422818000E+00 -1.9784901142E+00  0.0000000000E+00
                       1.1422818000E+00  1.9784901142E+00  3.6030866667E+00
                      -2.2845636000E+00  4.0347989381E-18  1.8015433333E+00
                       1.6876292400E+00 -6.0843889532E-01  6.4855560000E-01
                      -1.3707381600E+00 -1.1573103463E+00  2.4500989333E+00
                      -3.1689108000E-01  1.7657492417E+00  4.2516422667E+00
                      -3.1689108000E-01 -1.7657492417E+00 -6.4855560000E-01
                       1.6876292400E+00  6.0843889532E-01  2.9545310667E+00
                      -1.3707381600E+00  1.1573103463E+00  1.1529877333E+00
            xcart      2.1585997686E+00 -3.7388044724E+00  0.0000000000E+00
                       2.1585997686E+00  3.7388044724E+00  6.8088470331E+00
                      -4.3171995372E+00  7.6246649943E-18  3.4044235165E+00
                       3.1891570774E+00 -1.1497828807E+00  1.2255924659E+00
                      -2.5903197223E+00 -2.1869996053E+00  4.6300159825E+00
                      -5.9883735515E-01  3.3367824861E+00  8.0344394990E+00
                      -5.9883735515E-01 -3.3367824861E+00 -1.2255924659E+00
                       3.1891570774E+00  1.1497828807E+00  5.5832545671E+00
                      -2.5903197223E+00  2.1869996053E+00  2.1788310506E+00
             xred      4.6500000000E-01 -1.1657958272E-17  0.0000000000E+00
                      -1.1657958272E-17  4.6500000000E-01  6.6666666667E-01
                      -4.6500000000E-01 -4.6500000000E-01  3.3333333333E-01
                       4.1500000000E-01  2.7200000000E-01  1.2000000000E-01
                      -1.4300000000E-01 -4.1500000000E-01  4.5333333333E-01
                      -2.7200000000E-01  1.4300000000E-01  7.8666666667E-01
                       1.4300000000E-01 -2.7200000000E-01 -1.2000000000E-01
                       2.7200000000E-01  4.1500000000E-01  5.4666666667E-01
                      -4.1500000000E-01 -1.4300000000E-01  2.1333333333E-01
            znucl       14.00000    8.00000
 
================================================================================
 
 chkinp: Checking input parameters for consistency, jdtset=   1.
 
================================================================================
== DATASET  1 ==================================================================
-   mpi_nproc: 64, omp_nthreads: -1 (-1 if OMP is not activated)
-    --> not optimal distribution: autoparal keyword recommended in input file <--
 

--- !DatasetInfo
iteration_state: {dtset: 1, }
dimensions: {natom: 9, nkpt: 9, mband: 28, nsppol: 1, nspinor: 1, nspden: 1, mpw: 7899, }
cutoff_energies: {ecut:  36.0, pawecutdg:  -1.0, }
electrons: {nelect:   4.80000000E+01, charge:   0.00000000E+00, occopt:   1.00000000E+00, tsmear:   1.00000000E-02, }
meta: {optdriver: 0, ionmov: 0, optcell: 0, iscf: 7, paral_kgb: 0, }
...

 Exchange-correlation functional for the present dataset will be:
  GGA: Perdew-Burke-Ernzerhof functional - ixc=11
 Citation for XC functional:
  J.P.Perdew, K.Burke, M.Ernzerhof, PRL 77, 3865 (1996)
 
 Real(R)+Recip(G) space primitive vectors, cartesian coordinates (Bohr,Bohr^-1):
 R(1)=  4.6421500 -8.0404397  0.0000000  G(1)=  0.1077087 -0.0621857  0.0000000
 R(2)=  4.6421500  8.0404397  0.0000000  G(2)=  0.1077087  0.0621857  0.0000000
 R(3)=  0.0000000  0.0000000 10.2132705  G(3)=  0.0000000  0.0000000  0.0979118
 Unit cell volume ucvol=  7.6241917E+02 bohr^3
 Angles (23,13,12)=  9.00000000E+01  9.00000000E+01  1.20000000E+02 degrees
 
 getcut: wavevector=  0.0000  0.0000  0.0000  ngfft=  54  54  60
         ecut(hartree)=     36.000   => boxcut(ratio)=   2.15391
 
--- Pseudopotential description ------------------------------------------------
- pspini: atom type   1  psp file is Si_r.psp8
- pspatm: opening atomic psp file    Si_r.psp8
- Si    ONCVPSP  r_core=  1.60  1.72  1.92
- 14.00000   4.00000    160518                znucl, zion, pspdat
    8   11    2    4       600   0.00000      pspcod,pspxc,lmax,lloc,mmax,r2well
    5.99000000000000    4.00000000000000    0.00000000000000   rchrg,fchrg,qchrg
     nproj     2     3     2
     spin-orbit psp, extension_switch     3
        nprojso     4     3
  pspatm : epsatm=    9.34878155
         --- l  ekb(1:nproj) -->
             0    0.840891    5.077806
             1    2.715487    0.601430    0.000397
             2  -10.098948   -0.937382
  spin-orbit 1
  spin-orbit 1
  spin-orbit 1
  spin-orbit 1
  spin-orbit 2
  spin-orbit 2
  spin-orbit 2
 pspatm: atomic psp has been read  and splines computed
 
- pspini: atom type   2  psp file is O.psp8
- pspatm: opening atomic psp file    O.psp8
- O     ONCVPSP  r_core=  1.36  1.46  1.26
-  8.00000   6.00000    151103                znucl, zion, pspdat
    8   11    2    4       600   0.00000      pspcod,pspxc,lmax,lloc,mmax,r2well
    5.99000000000000    4.00000000000000    0.00000000000000   rchrg,fchrg,qchrg
     nproj     2     2     1
     extension_switch     1
  pspatm : epsatm=    6.19401560
         --- l  ekb(1:nproj) -->
             0    5.257212    0.704241
             1   -5.135443   -1.451781
             2   -4.371486
 pspatm: atomic psp has been read  and splines computed
 
   3.13010104E+03                                ecore*ucvol(ha*bohr**3)
--------------------------------------------------------------------------------
 
_setup2: Arith. and geom. avg. npw (full set) are    7863.729    7863.720
 
================================================================================

--- !BeginCycle
iteration_state: {dtset: 1, }
solver: {iscf: 7, nstep: 200, nline: 4, wfoptalg: 0, }
tolerances: {tolvrs: 1.00E-08, }
...
 
     iter   Etot(hartree)      deltaE(h)  residm     vres2
 ETOT  1  -111.71427931029    -1.117E+02 1.443E-01 1.503E+03
 ETOT  2  -111.76616466266    -5.189E-02 5.417E-03 1.605E+03
 ETOT  3  -112.35632808698    -5.902E-01 7.931E-03 6.171E+00
 ETOT  4  -112.35939888686    -3.071E-03 3.141E-03 9.303E-02
 ETOT  5  -112.35941292646    -1.404E-05 1.174E-03 3.101E-03
 ETOT  6  -112.35941330709    -3.806E-07 1.051E-03 1.477E-04
 ETOT  7  -112.35941332418    -1.709E-08 3.754E-04 1.014E-05
 ETOT  8  -112.35941332517    -9.827E-10 3.753E-04 1.114E-07
 ETOT  9  -112.35941332518    -1.498E-11 1.084E-04 2.298E-09
 
 At SCF step    9       vres2   =  2.30E-09 < tolvrs=  1.00E-08 =>converged.
 
 Cartesian components of stress tensor (hartree/bohr^3)
  sigma(1 1)= -1.73427182E-04  sigma(3 2)=  0.00000000E+00
  sigma(2 2)= -1.73427182E-04  sigma(3 1)=  0.00000000E+00
  sigma(3 3)= -2.25797376E-04  sigma(2 1)=  0.00000000E+00
 

--- !ResultsGS
iteration_state: {dtset: 1, }
comment   : Summary of ground state results
lattice_vectors:
- [  4.6421500,  -8.0404397,   0.0000000, ]
- [  4.6421500,   8.0404397,   0.0000000, ]
- [  0.0000000,   0.0000000,  10.2132705, ]
lattice_lengths: [   9.28430,    9.28430,   10.21327, ]
lattice_angles: [ 90.000,  90.000, 120.000, ] # degrees, (23, 13, 12)
lattice_volume:   7.6241917E+02
convergence: {deltae: -1.498E-11, res2:  2.298E-09, residm:  1.084E-04, diffor: null, }
etotal    :  -1.12359413E+02
entropy   :   0.00000000E+00
fermie    :   7.04939940E-03
cartesian_stress_tensor: # hartree/bohr^3
- [ -1.73427182E-04,   0.00000000E+00,   0.00000000E+00, ]
- [  0.00000000E+00,  -1.73427182E-04,   0.00000000E+00, ]
- [  0.00000000E+00,   0.00000000E+00,  -2.25797376E-04, ]
pressure_GPa:   5.6160E+00
xred      :
- [  4.6500E-01,  -1.1658E-17,   0.0000E+00, Si]
- [ -1.1658E-17,   4.6500E-01,   6.6667E-01, Si]
- [ -4.6500E-01,  -4.6500E-01,   3.3333E-01, Si]
- [  4.1500E-01,   2.7200E-01,   1.2000E-01,  O]
- [ -1.4300E-01,  -4.1500E-01,   4.5333E-01,  O]
- [ -2.7200E-01,   1.4300E-01,   7.8667E-01,  O]
- [  1.4300E-01,  -2.7200E-01,  -1.2000E-01,  O]
- [  2.7200E-01,   4.1500E-01,   5.4667E-01,  O]
- [ -4.1500E-01,  -1.4300E-01,   2.1333E-01,  O]
cartesian_forces: # hartree/bohr
- [ -7.75386834E-04,   1.34300939E-03,   1.92747056E-19, ]
- [ -7.75386834E-04,  -1.34300939E-03,   1.92747053E-19, ]
- [  1.55077367E-03,   1.66029451E-19,   1.92747053E-19, ]
- [ -7.22082716E-03,   9.72361828E-04,  -8.79393385E-03, ]
- [  4.45250363E-03,   5.76723885E-03,  -8.79393385E-03, ]
- [  2.76832354E-03,  -6.73960068E-03,  -8.79393385E-03, ]
- [  2.76832354E-03,   6.73960068E-03,   8.79393385E-03, ]
- [ -7.22082716E-03,  -9.72361828E-04,   8.79393385E-03, ]
- [  4.45250363E-03,  -5.76723885E-03,   8.79393385E-03, ]
force_length_stats: {min:   1.55077367E-03, max:   1.14201184E-02, mean:   8.13033684E-03, }
...

 Integrated electronic density in atomic spheres:
 ------------------------------------------------
 Atom  Sphere_radius  Integrated_density
    1        2.00000          2.39674682
    2        2.00000          2.39674682
    3        2.00000          2.39674682
    4        2.00000          6.54744923
    5        2.00000          6.54744923
    6        2.00000          6.54744923
    7        2.00000          6.54744923
    8        2.00000          6.54744923
    9        2.00000          6.54744923
================================================================================
 
 ----iterations are completed or convergence reached----
 
 Mean square residual over all n,k,spin=   16.243E-07; max=  10.844E-05
 reduced coordinates (array xred) for    9 atoms
       0.465000000000     -0.000000000000      0.000000000000
      -0.000000000000      0.465000000000      0.666666666667
      -0.465000000000     -0.465000000000      0.333333333333
       0.415000000000      0.272000000000      0.120000000000
      -0.143000000000     -0.415000000000      0.453333333333
      -0.272000000000      0.143000000000      0.786666666667
       0.143000000000     -0.272000000000     -0.120000000000
       0.272000000000      0.415000000000      0.546666666667
      -0.415000000000     -0.143000000000      0.213333333333
 rms dE/dt=  5.3221E-02; max dE/dt=  8.9815E-02; dE/dt below (all hartree)
    1       0.014397848097     -0.007198924048     -0.000000000000
    2      -0.007198924048      0.014397848097      0.000000000000
    3      -0.007198924048     -0.007198924048      0.000000000000
    4       0.041338379780      0.025701946444      0.089814825576
    5       0.025701946444     -0.067040326225      0.089814825576
    6      -0.067040326225      0.041338379780      0.089814825576
    7       0.041338379780     -0.067040326225     -0.089814825576
    8       0.025701946444      0.041338379780     -0.089814825576
    9      -0.067040326225      0.025701946444     -0.089814825576
 
 cartesian coordinates (angstrom) at end:
    1      1.14228180000000    -1.97849011415109     0.00000000000000
    2      1.14228180000000     1.97849011415109     3.60308666666667
    3     -2.28456360000000    -0.00000000000000     1.80154333333333
    4      1.68762924000000    -0.60843889531958     0.64855560000000
    5     -1.37073816000000    -1.15731034634214     2.45009893333333
    6     -0.31689108000000     1.76574924166173     4.25164226666667
    7     -0.31689108000000    -1.76574924166173    -0.64855560000000
    8      1.68762924000000     0.60843889531958     2.95453106666667
    9     -1.37073816000000     1.15731034634214     1.15298773333333
 
 cartesian forces (hartree/bohr) at end:
    1     -0.00077538683437     0.00134300939265     0.00000000000000
    2     -0.00077538683437    -0.00134300939265     0.00000000000000
    3      0.00155077366874     0.00000000000000     0.00000000000000
    4     -0.00722082716498     0.00097236182781    -0.00879393384713
    5      0.00445250362704     0.00576723884733    -0.00879393384713
    6      0.00276832353794    -0.00673960067515    -0.00879393384713
    7      0.00276832353794     0.00673960067515     0.00879393384713
    8     -0.00722082716498    -0.00097236182781     0.00879393384713
    9      0.00445250362704    -0.00576723884733     0.00879393384713
 frms,max,avg= 5.4082561E-03 8.7939338E-03   0.000E+00  0.000E+00  0.000E+00 h/b
 
 cartesian forces (eV/Angstrom) at end:
    1     -0.03987199079532     0.06906031385677     0.00000000000000
    2     -0.03987199079532    -0.06906031385677     0.00000000000000
    3      0.07974398159065     0.00000000000000     0.00000000000000
    4     -0.37130983077760     0.05000085135560    -0.45220222199532
    5      0.22895692287338     0.29656332045215    -0.45220222199532
    6      0.14235290790422    -0.34656417180775    -0.45220222199532
    7      0.14235290790422     0.34656417180775     0.45220222199532
    8     -0.37130983077760    -0.05000085135560     0.45220222199532
    9      0.22895692287338    -0.29656332045215     0.45220222199532
 frms,max,avg= 2.7810369E-01 4.5220222E-01   0.000E+00  0.000E+00  0.000E+00 e/A
 length scales=  9.284300079912  9.284300079912 10.213270549578 bohr
              =  4.913040000000  4.913040000000  5.404630000000 angstroms
 prteigrs : about to open file t41o_DS1_EIG
 Fermi (or HOMO) energy (hartree) =   0.00705   Average Vxc (hartree)=  -0.33694
 Eigenvalues (hartree) for nkpt=   9  k points:
 kpt#   1, nband= 28, wtk=  0.02083, kpt=  0.0000  0.0000  0.0000 (reduced coord)
  -0.70367   -0.64749   -0.64749   -0.62352   -0.62211   -0.62211   -0.29541   -0.29541
  -0.19292   -0.19033   -0.18464   -0.18464   -0.09991   -0.09991   -0.09000   -0.08355
  -0.04808   -0.04808   -0.04472   -0.02843   -0.02843   -0.01711   -0.00249   -0.00249
   0.22990    0.35174    0.35175    0.36676
 prteigrs : prtvol=0 or 1, do not print more k-points.
 

--- !EnergyTerms
iteration_state     : {dtset: 1, }
comment             : Components of total free energy in Hartree
kinetic             :  7.35950527286913E+01
hartree             :  3.87041060168479E+01
xc                  : -3.03833489470310E+01
Ewald energy        : -6.95068319280861E+01
psp_core            :  4.10548576173644E+00
local_psp           : -1.13960863649652E+02
non_local_psp       : -1.49130133076873E+01
total_energy        : -1.12359413325181E+02
total_energy_eV     : -3.05745512627590E+03
band_energy         : -1.16278690343566E+01
...

 
 Cartesian components of stress tensor (hartree/bohr^3)
  sigma(1 1)= -1.73427182E-04  sigma(3 2)=  0.00000000E+00
  sigma(2 2)= -1.73427182E-04  sigma(3 1)=  0.00000000E+00
  sigma(3 3)= -2.25797376E-04  sigma(2 1)=  0.00000000E+00
 
-Cartesian components of stress tensor (GPa)         [Pressure=  5.6160E+00 GPa]
- sigma(1 1)= -5.10240301E+00  sigma(3 2)=  0.00000000E+00
- sigma(2 2)= -5.10240301E+00  sigma(3 1)=  0.00000000E+00
- sigma(3 3)= -6.64318703E+00  sigma(2 1)=  0.00000000E+00
 
== END DATASET(S) ==============================================================
================================================================================
  
 -outvars: echo values of variables after computation  --------
            acell      9.2843000799E+00  9.2843000799E+00  1.0213270550E+01 Bohr
              amu      2.80855000E+01  1.59994000E+01
           diemac      4.00000000E+00
             ecut      3.60000000E+01 Hartree
           etotal1    -1.1235941333E+02
            fcart1    -7.7538683437E-04  1.3430093927E-03  1.9274705626E-19
                      -7.7538683437E-04 -1.3430093927E-03  1.9274705289E-19
                       1.5507736687E-03  1.6602945121E-19  1.9274705289E-19
                      -7.2208271650E-03  9.7236182781E-04 -8.7939338471E-03
                       4.4525036270E-03  5.7672388473E-03 -8.7939338471E-03
                       2.7683235379E-03 -6.7396006751E-03 -8.7939338471E-03
                       2.7683235379E-03  6.7396006751E-03  8.7939338471E-03
                      -7.2208271650E-03 -9.7236182781E-04  8.7939338471E-03
                       4.4525036270E-03 -5.7672388473E-03  8.7939338471E-03
-          fftalg         512
           istwfk        1    0    1    0    0    0    0    0    0
              ixc          11
           jdtset        1
              kpt      0.00000000E+00  0.00000000E+00  0.00000000E+00
                       2.50000000E-01  0.00000000E+00  0.00000000E+00
                       5.00000000E-01  0.00000000E+00  0.00000000E+00
                       2.50000000E-01  2.50000000E-01  0.00000000E+00
                       0.00000000E+00  0.00000000E+00  3.33333333E-01
                       2.50000000E-01  0.00000000E+00  3.33333333E-01
                       5.00000000E-01  0.00000000E+00  3.33333333E-01
                      -2.50000000E-01  0.00000000E+00  3.33333333E-01
                       2.50000000E-01  2.50000000E-01  3.33333333E-01
         kptrlatt        4    0    0      0    4    0      0    0    3
          kptrlen      3.06398116E+01
P           mkmem           1
            natom           9
            nband          28
           ndtset           1
            ngfft          54      54      60
             nkpt           9
            nstep         200
             nsym           6
           ntypat           2
              occ      2.000000  2.000000  2.000000  2.000000  2.000000  2.000000
                       2.000000  2.000000  2.000000  2.000000  2.000000  2.000000
                       2.000000  2.000000  2.000000  2.000000  2.000000  2.000000
                       2.000000  2.000000  2.000000  2.000000  2.000000  2.000000
                       0.000000  0.000000  0.000000  0.000000
            rprim      5.0000000000E-01 -8.6602540378E-01  0.0000000000E+00
                       5.0000000000E-01  8.6602540378E-01  0.0000000000E+00
                       0.0000000000E+00  0.0000000000E+00  1.0000000000E+00
          spgroup         154
           strten1    -1.7342718249E-04 -1.7342718244E-04 -2.2579737577E-04
                       0.0000000000E+00  0.0000000000E+00  0.0000000000E+00
           symrel      1  0  0   0  1  0   0  0  1       1  0  0  -1 -1  0   0  0 -1
                       0  1  0  -1 -1  0   0  0  1       0  1  0   1  0  0   0  0 -1
                      -1 -1  0   1  0  0   0  0  1      -1 -1  0   0  1  0   0  0 -1
           timopt          -1
            tnons      0.0000000  0.0000000  0.0000000     0.0000000 -0.0000000  0.0000000
                      -0.0000000  0.0000000 -0.3333333     0.0000000  0.0000000 -0.3333333
                       0.0000000  0.0000000  0.3333333     0.0000000  0.0000000  0.3333333
           tolvrs      1.00000000E-08
            typat      1  1  1  2  2  2  2  2  2
              wtk        0.02083    0.12500    0.06250    0.12500    0.04167    0.12500
                         0.12500    0.12500    0.25000
           xangst      1.1422818000E+00 -1.9784901142E+00  0.0000000000E+00
                       1.1422818000E+00  1.9784901142E+00  3.6030866667E+00
                      -2.2845636000E+00  4.0347989381E-18  1.8015433333E+00
                       1.6876292400E+00 -6.0843889532E-01  6.4855560000E-01
                      -1.3707381600E+00 -1.1573103463E+00  2.4500989333E+00
                      -3.1689108000E-01  1.7657492417E+00  4.2516422667E+00
                      -3.1689108000E-01 -1.7657492417E+00 -6.4855560000E-01
                       1.6876292400E+00  6.0843889532E-01  2.9545310667E+00
                      -1.3707381600E+00  1.1573103463E+00  1.1529877333E+00
            xcart      2.1585997686E+00 -3.7388044724E+00  0.0000000000E+00
                       2.1585997686E+00  3.7388044724E+00  6.8088470331E+00
                      -4.3171995372E+00  7.6246649943E-18  3.4044235165E+00
                       3.1891570774E+00 -1.1497828807E+00  1.2255924659E+00
                      -2.5903197223E+00 -2.1869996053E+00  4.6300159825E+00
                      -5.9883735515E-01  3.3367824861E+00  8.0344394990E+00
                      -5.9883735515E-01 -3.3367824861E+00 -1.2255924659E+00
                       3.1891570774E+00  1.1497828807E+00  5.5832545671E+00
                      -2.5903197223E+00  2.1869996053E+00  2.1788310506E+00
             xred      4.6500000000E-01 -1.1657958272E-17  0.0000000000E+00
                      -1.1657958272E-17  4.6500000000E-01  6.6666666667E-01
                      -4.6500000000E-01 -4.6500000000E-01  3.3333333333E-01
                       4.1500000000E-01  2.7200000000E-01  1.2000000000E-01
                      -1.4300000000E-01 -4.1500000000E-01  4.5333333333E-01
                      -2.7200000000E-01  1.4300000000E-01  7.8666666667E-01
                       1.4300000000E-01 -2.7200000000E-01 -1.2000000000E-01
                       2.7200000000E-01  4.1500000000E-01  5.4666666667E-01
                      -4.1500000000E-01 -1.4300000000E-01  2.1333333333E-01
            znucl       14.00000    8.00000
 
================================================================================
 
 Test the timer : 
  a combined call timab(*,1,tsec) + timab(*,2,tsec) is 
- CPU time =    2.0606E-06 sec,    Wall time =    2.0675E-06 sec

- Total cpu        time (s,m,h):        671.3       11.19      0.186
- Total wall clock time (s,m,h):        681.2       11.35      0.189
-
- For major independent code sections, cpu and wall times (sec),
-  as well as % of the time and number of calls for node 0
-
-<BEGIN_TIMER mpi_nprocs = 64, omp_nthreads = 1, mpi_rank = 0>
- cpu_time =           10.2, wall_time =           10.7
-
- routine                            cpu     %          wall     %      number of calls Gflops    Speedup Efficacity
-                                                                        (-1=no count)
- nonlop(apply)                     2.858   0.4         2.873   0.4           1540      -1.00        0.99       0.99
- fourwf%(pot)                      2.583   0.4         2.599   0.4           1540      -1.00        0.99       0.99
- projbd                            1.276   0.2         1.284   0.2           2464      -1.00        0.99       0.99
- vtorho(MPI)                       0.492   0.1         0.493   0.1              9      -1.00        1.00       1.00
- fourdp                            0.377   0.1         0.390   0.1            126      -1.00        0.97       0.97
- pspini                            0.346   0.1         0.353   0.1              1      -1.00        0.98       0.98
- xc:pot/=fourdp                    0.262   0.0         0.266   0.0             10      -1.00        0.98       0.98
- fourwf%(den)                      0.181   0.0         0.182   0.0            216      -1.00        0.99       0.99
- ewald                             0.155   0.0         0.156   0.0              1      -1.00        0.99       0.99
- stress                            0.146   0.0         0.148   0.0              1      -1.00        0.99       0.99
- vtowfk(ssdiag)                    0.136   0.0         0.143   0.0             -1      -1.00        0.95       0.95
- timing timab                      0.119   0.0         0.119   0.0             11      -1.00        1.00       1.00
- nonlop(forstr)                    0.118   0.0         0.118   0.0             24      -1.00        1.00       1.00
- ewald2 (+vdw_dftd)                0.102   0.0         0.102   0.0              1      -1.00        1.00       1.00
- mkcore                            0.078   0.0         0.078   0.0              3      -1.00        1.00       1.00
- getghc-other                      0.059   0.0         0.056   0.0             -1      -1.00        1.05       1.05
- symrhg(no FFT)                    0.050   0.0         0.050   0.0              9      -1.00        0.99       0.99
- forces                            0.047   0.0         0.047   0.0              1      -1.00        1.00       1.00
- invars2                           0.017   0.0         0.018   0.0              1      -1.00        0.93       0.93
- mkffnl                            0.015   0.0         0.015   0.0             10      -1.00        0.99       0.99
- newkpt(excl. rwwf   )             0.014   0.0         0.014   0.0             -1      -1.00        0.98       0.98
- setsym                            0.008   0.0         0.008   0.0              1      -1.00        0.99       0.99
- abinit(2)                         0.007   0.0         0.019   0.0              1      -1.00        0.39       0.39
- vtowfk(contrib)                   0.006   0.0         0.006   0.0              9      -1.00        1.01       1.01
- scfcv-scprqt                      0.002   0.0         0.008   0.0              9      -1.00        0.24       0.24
- others (113)                      0.001   0.0         0.001   0.0             -1      -1.00        1.02       1.02
-<END_TIMER>
-
- subtotal                          9.453   1.4         9.548   1.4                                  0.99       0.99

- For major independent code sections, cpu and wall times (sec),
- as well as % of the total time and number of calls 

-<BEGIN_TIMER mpi_nprocs = 64, omp_nthreads = 1, mpi_rank = world>
- cpu_time =         671.3, wall_time =         681.2
-
- routine                            cpu     %          wall     %      number of calls Gflops    Speedup Efficacity
-                                                                        (-1=no count)
- vtorho(MPI)                     436.041  65.0       438.408  64.4            576      -1.00        0.99       0.99
- fourdp                           25.855   3.9        27.746   4.1           8064      -1.00        0.93       0.93
- nonlop(apply)                    25.570   3.8        25.715   3.8          13860      -1.00        0.99       0.99
- fourwf%(pot)                     23.151   3.4        23.292   3.4          13860      -1.00        0.99       0.99
- pspini                           22.155   3.3        22.484   3.3             64      -1.00        0.99       0.99
- xc:pot/=fourdp                   19.093   2.8        19.248   2.8            640      -1.00        0.99       0.99
- projbd                           11.858   1.8        11.938   1.8          22176      -1.00        0.99       0.99
- ewald                            10.024   1.5        11.280   1.7             64      -1.00        0.89       0.89
- stress                            9.289   1.4         9.326   1.4             64      -1.00        1.00       1.00
- timing timab                      7.274   1.1         7.526   1.1            398      -1.00        0.97       0.97
- ewald2 (+vdw_dftd)                6.515   1.0         6.533   1.0             64      -1.00        1.00       1.00
- mkcore                            4.924   0.7         4.950   0.7            192      -1.00        0.99       0.99
- symrhg(no FFT)                    3.544   0.5         3.564   0.5            576      -1.00        0.99       0.99
- forces                            3.148   0.5         3.165   0.5             64      -1.00        0.99       0.99
- scfcv-scprqt                      2.764   0.4         2.781   0.4            576      -1.00        0.99       0.99
- fourwf%(den)                      1.628   0.2         1.636   0.2           1944      -1.00        0.99       0.99
- vtowfk(ssdiag)                    1.170   0.2         1.183   0.2            -64      -1.00        0.99       0.99
- invars2                           1.108   0.2         1.216   0.2             64      -1.00        0.91       0.91
- nonlop(forstr)                    1.060   0.2         1.065   0.2            216      -1.00        1.00       1.00
- newkpt(excl. rwwf   )             0.842   0.1         0.859   0.1            -64      -1.00        0.98       0.98
- abinit(2)                         0.823   0.1         1.063   0.2             64      -1.00        0.77       0.77
- setsym                            0.513   0.1         0.517   0.1             64      -1.00        0.99       0.99
- getghc-other                      0.512   0.1         0.487   0.1            -64      -1.00        1.05       1.05
- mkffnl                            0.152   0.0         0.153   0.0             90      -1.00        0.99       0.99
- vtowfk(contrib)                   0.053   0.0         0.052   0.0             81      -1.00        1.01       1.01
- kpgsph                            0.022   0.0         0.022   0.0            585      -1.00        0.99       0.99
- inwffil(excl. calls)              0.006   0.0         0.025   0.0             64      -1.00        0.25       0.25
- others (111)                      0.001   0.0         0.001   0.0             -1      -1.00        1.08       1.08
-<END_TIMER>

- subtotal                        619.095  92.2       626.235  91.9                                  0.99       0.99

 Partitioning of abinit
- abinit                          671.304 100.0       681.199 100.0             64                   0.99       0.99
 
- abinit(1)                         9.696   1.4        10.272   1.5             64                   0.94       0.94
- abinit(2)                         0.823   0.1         1.063   0.2             64                   0.77       0.77
- indefo+macroin+invars2m           1.126   0.2         1.245   0.2             64                   0.90       0.90
- abinit(4)                         7.071   1.1         7.782   1.1             64                   0.91       0.91
- abinit(5)                         6.711   1.0         6.834   1.0             64                   0.98       0.98
- driver                          645.443  96.1       653.757  96.0             64                   0.99       0.99
- timing timab                      7.274   1.1         7.526   1.1            398                   0.97       0.97

- subtotal                        671.304 100.0       681.199 100.0                                  0.99       0.99

 Partitioning of driver
- driver                          645.443  96.1       653.757  96.0             64                   0.99       0.99
 
- driver(aft. select case)          3.392   0.5         3.403   0.5             64                   1.00       1.00
- (other)                         641.959  95.6       650.206  95.5             -1                   0.99       0.99

- subtotal                        645.443  96.1       653.757  96.0                                  0.99       0.99

 Partitioning of gstateimg+gstate
- gstateimg                       641.956  95.6       650.204  95.4             64                   0.99       0.99
 
- gstate(1)                         1.720   0.3         1.920   0.3            128                   0.90       0.90
- gstate(pspini)                   22.156   3.3        22.484   3.3             64                   0.99       0.99
- gstate(init rhor rhog)            1.293   0.2         3.005   0.4             64                   0.43       0.43
- gstate(init history)              0.768   0.1         1.035   0.2             64                   0.74       0.74
- gstate(...scfcv)                604.346  90.0       609.777  89.5             64                   0.99       0.99
- gstate(prtwf)                    11.464   1.7        11.597   1.7             64                   0.99       0.99
- gstate(clnup1)                    0.112   0.0         0.147   0.0             64                   0.76       0.76

- subtotal                        641.936  95.6       650.158  95.4                                  0.99       0.99

 Partitioning of scfcv_core
- scfcv_core                      604.343  90.0       609.774  89.5             64                   0.99       0.99
 
- scfcv_core(1)                     0.071   0.0         0.414   0.1             64                   0.17       0.17
- scfcv_core(iniloop, setv         15.002   2.2        16.409   2.4            576                   0.91       0.91
- scfcv_core(vtorho(f))           514.097  76.6       516.924  75.9            576                   0.99       0.99
- scfcv-scprqt                      2.764   0.4         2.781   0.4            576                   0.99       0.99
- scfcv_core(rhotov)               39.652   5.9        39.985   5.9            576                   0.99       0.99
- scfcv_core(qui loop)              1.478   0.2         1.485   0.2            576                   1.00       1.00
- scfcv_core(mix pot)              10.288   1.5        10.565   1.6            512                   0.97       0.97
- scfcv_core(afterscfloop)         20.851   3.1        21.011   3.1             64                   0.99       0.99
- scfcv_core(outscfcv)              0.094   0.0         0.146   0.0             64                   0.65       0.65

- subtotal                        604.343  90.0       609.774  89.5                                  0.99       0.99

 Partitioning of rhotov
- rhotov                           39.646   5.9        39.959   5.9            576                   0.99       0.99
 
- rhotov(rhotoxc)                  32.329   4.8        32.583   4.8            576                   0.99       0.99
- rhotov(dotprod_vn)                0.342   0.1         0.345   0.1            576                   0.99       0.99
- rhotov(other)                     1.776   0.3         1.791   0.3            576                   0.99       0.99
- (other)                           5.199   0.8         5.241   0.8             -1                   0.99       0.99

- subtotal                         39.646   5.9        39.959   5.9                                  0.99       0.99

 Partitioning of vtorho
- vtorho                          514.082  76.6       516.908  75.9            576                   0.99       0.99
 
- vtorho(bef. spin loop)            0.322   0.0         0.327   0.0            576                   0.98       0.98
- vtorho(bef. kpt  loop)            0.815   0.1         0.827   0.1            576                   0.99       0.99
- vtorho(bef. vtowfk)               0.173   0.0         0.175   0.0             81                   0.99       0.99
- vtowfk                           66.865  10.0        67.235   9.9             81                   0.99       0.99
- vtorho(aft. kpt loop)             0.407   0.1         0.411   0.1            576                   0.99       0.99
- vtorho(MPI)                     436.041  65.0       438.408  64.4            576                   0.99       0.99
- vtorho(highest occ. eig)          0.369   0.1         0.373   0.1            576                   0.99       0.99
- vtorho(mkrho 2)                   9.052   1.3         9.120   1.3           1152                   0.99       0.99

- subtotal                        514.082  76.6       516.908  75.9                                  0.99       0.99

 Partitioning of vtowfk
- vtowfk                           66.865  10.0        67.235   9.9             81                   0.99       0.99
 
- cgwf                             64.014   9.5        64.363   9.4             99                   0.99       0.99
- vtowfk(subdiago)                  0.348   0.1         0.357   0.1             99                   0.98       0.98
- vtowfk(pw_orthon)                 0.758   0.1         0.761   0.1             99                   1.00       1.00
- fourwf%vtowfk                     1.628   0.2         1.636   0.2           1944                   0.99       0.99

- subtotal                         66.865  10.0        67.235   9.9                                  0.99       0.99

 Partitioning of cgwf
- cgwf                             64.014   9.5        64.363   9.4             99                   0.99       0.99
 
- getghc%cgwf                      49.232   7.3        49.494   7.3          13860                   0.99       0.99
- cgwf-O(npw)                       2.924   0.4         2.931   0.4            -64                   1.00       1.00
- projbd%cgwf                      11.858   1.8        11.938   1.8          22176                   0.99       0.99

- subtotal                         64.014   9.5        64.363   9.4                                  0.99       0.99

 Partitioning of getghc
- getghc                           49.232   7.3        49.494   7.3          13860                   0.99       0.99
 
- fourwf%getghc                    23.151   3.4        23.292   3.4          13860                   0.99       0.99
- nonlop%getghc                    25.570   3.8        25.715   3.8          13860                   0.99       0.99
- getghc-other                      0.512   0.1         0.487   0.1            -64                   1.05       1.05

- subtotal                         49.232   7.3        49.494   7.3                                  0.99       0.99

 Partitioning of fourwf (upwards partitioning)
- fourwf                           24.778   3.7        24.928   3.7          15804                   0.99       0.99
 
- fourwf%getghc                    23.151   3.4        23.292   3.4          13860                   0.99       0.99
- fourwf%vtowfk                     1.628   0.2         1.636   0.2           1944                   0.99       0.99

- subtotal                         24.778   3.7        24.928   3.7                                  0.99       0.99

 Partitioning of inwffil
- inwffil                           0.853   0.1         0.901   0.1             64                   0.95       0.95
 
- inwffil(call newkpt)              0.847   0.1         0.875   0.1             64                   0.97       0.97

- subtotal                          0.852   0.1         0.900   0.1                                  0.95       0.95

 Partitioning of newkpt
- newkpt                            0.844   0.1         0.862   0.1             64                   0.98       0.98
 
- newkpt(after loop   )             0.714   0.1         0.730   0.1             64                   0.98       0.98

- subtotal                          0.842   0.1         0.859   0.1                                  0.98       0.98

 Partitioning of newvtr
- newvtr                           10.244   1.5        10.510   1.5            512                   0.97       0.97
 
- newvtr(before selection)          0.331   0.0         0.335   0.0            512                   0.99       0.99
- newvtr(bef. prcref_PMA)           0.810   0.1         0.820   0.1            512                   0.99       0.99
- newvtr(call prcref_PMA)           4.167   0.6         4.204   0.6            512                   0.99       0.99
- newvtr(aft. prcref_PMA)           4.274   0.6         4.491   0.7            512                   0.95       0.95
- newvtr(mean potential)            0.237   0.0         0.238   0.0            512                   0.99       0.99
- (other)                           0.426   0.1         0.422   0.1             -1                   1.01       1.01

- subtotal                         10.244   1.5        10.510   1.5                                  0.97       0.97

 Partitioning of  fourdp (upwards partitioning)
- fourdp                           25.855   3.9        27.746   4.1           8064                   0.93       0.93
 
- fourdp%(other)                   25.855   3.9        27.746   4.1           8064                   0.93       0.93

- subtotal                         25.855   3.9        27.746   4.1                                  0.93       0.93

 Partitioning of afterscfloop
- afterscfloop                     20.849   3.1        21.009   3.1             64                   0.99       0.99
 
- afterscfloop(forstr)             20.846   3.1        21.006   3.1             64                   0.99       0.99

- subtotal                         20.848   3.1        21.008   3.1                                  0.99       0.99

 Partitioning of forstr
- forstr                           20.821   3.1        20.949   3.1             64                   0.99       0.99
 
- forstr(forstrnps)                 8.359   1.2         8.396   1.2             64                   1.00       1.00
- forstr(forces)                    3.170   0.5         3.211   0.5             64                   0.99       0.99
- forstr(stress)                    9.290   1.4         9.340   1.4             64                   0.99       0.99

- subtotal                         20.820   3.1        20.948   3.1                                  0.99       0.99

 Partitioning of forstrnps
- forstrnps                         8.358   1.2         8.395   1.2             64                   1.00       1.00
 
- forstrnps(nonlop+prep_ba          1.060   0.2         1.065   0.2            216                   1.00       1.00
- forstrnps:synchr                  7.254   1.1         7.287   1.1            128                   1.00       1.00

- subtotal                          8.358   1.2         8.395   1.2                                  1.00       1.00

 Partitioning of outscfcv
- outscfcv                          0.093   0.0         0.144   0.0             64                   0.64       0.64
 

- subtotal                          0.091   0.0         0.142   0.0                                  0.64       0.64
-
-Synchronisation (=leave_test) and MPI calls 
- communic.MPI                    436.380  65.0       438.755  64.4          55656                   0.99       0.99
-
- forstrnps:synchr                  7.254   1.1         7.287   1.1            128                   1.00       1.00
- subtotal                          7.254   1.1         7.287   1.1                                  1.00       1.00

 Additional information
- timana(1)                         0.004   0.0         0.042   0.0             64                   0.08       0.08
- total timab                       9.450   1.4         9.730   1.4         766228                   0.97       0.97
- fourwf                           24.778   3.7        24.928   3.7          15804                   0.99       0.99
- mklocl(2)                         0.670   0.1         0.675   0.1             64                   0.99       0.99
- nonlop(forstr)                    1.060   0.2         1.065   0.2            216                   1.00       1.00
- nonlop(total)                    26.630   4.0        26.779   3.9          14076                   0.99       0.99
- xc:fourdp                        15.714   2.3        15.840   2.3           5120                   0.99       0.99


 Detailed analysis of some time consuming routines 
                                  tcpu    ncalls  tcpu/ncalls    ndata tcpu/ncalls/ndata
                                 (sec)                (msec)              (microsec)
- fourwf%(pot)                  23.151     13860       1.670    349920       0.005
- fourwf%(den)                   1.628      1944       0.837    174960       0.005
- fourdp                        25.855      8064       3.206    174960       0.018
- nonlop(apply)                 25.570     13860       1.845     70803       0.026
- nonlop(forces)                 0.000         0
- nonlop(forstr)                 1.060       216       4.907     70803       0.069
- projbd                        11.858     22176       0.535    220297       0.002
- xc:pot/=fourdp                19.093       640      29.833    174960       0.171

================================================================================

 Suggested references for the acknowledgment of ABINIT usage.

 The users of ABINIT have little formal obligations with respect to the ABINIT group
 (those specified in the GNU General Public License, http://www.gnu.org/copyleft/gpl.txt).
 However, it is common practice in the scientific literature,
 to acknowledge the efforts of people that have made the research possible.
 In this spirit, please find below suggested citations of work written by ABINIT developers,
 corresponding to implementations inside of ABINIT that you have used in the present run.
 Note also that it will be of great value to readers of publications presenting these results,
 to read papers enabling them to understand the theoretical formalism and details
 of the ABINIT implementation.
 For information on why they are suggested, see also https://docs.abinit.org/theory/acknowledgments.
-
- [1] The Abinit project: Impact, environment and recent developments.
- Computer Phys. Comm. 248, 107042 (2020).
- X.Gonze, B. Amadon, G. Antonius, F.Arnardi, L.Baguet, J.-M.Beuken,
- J.Bieder, F.Bottin, J.Bouchet, E.Bousquet, N.Brouwer, F.Bruneval,
- G.Brunin, T.Cavignac, J.-B. Charraud, Wei Chen, M.Cote, S.Cottenier,
- J.Denier, G.Geneste, Ph.Ghosez, M.Giantomassi, Y.Gillet, O.Gingras,
- D.R.Hamann, G.Hautier, Xu He, N.Helbig, N.Holzwarth, Y.Jia, F.Jollet,
- W.Lafargue-Dit-Hauret, K.Lejaeghere, M.A.L.Marques, A.Martin, C.Martins,
- H.P.C. Miranda, F.Naccarato, K. Persson, G.Petretto, V.Planes, Y.Pouillon,
- S.Prokhorenko, F.Ricci, G.-M.Rignanese, A.H.Romero, M.M.Schmitt, M.Torrent,
- M.J.van Setten, B.Van Troeye, M.J.Verstraete, G.Zerah and J.W.Zwanzig
- Comment: the fifth generic paper describing the ABINIT project.
- Note that a version of this paper, that is not formatted for Computer Phys. Comm. 
- is available at https://www.abinit.org/sites/default/files/ABINIT20.pdf .
- The licence allows the authors to put it on the Web.
- DOI and bibtex: see https://docs.abinit.org/theory/bibliography/#gonze2020
-
- [2] Optimized norm-conserving Vanderbilt pseudopotentials.
- D.R. Hamann, Phys. Rev. B 88, 085117 (2013).
- Comment: Some pseudopotential generated using the ONCVPSP code were used.
- DOI and bibtex: see https://docs.abinit.org/theory/bibliography/#hamann2013
-
- [3] ABINIT: Overview, and focus on selected capabilities
- J. Chem. Phys. 152, 124102 (2020).
- A. Romero, D.C. Allan, B. Amadon, G. Antonius, T. Applencourt, L.Baguet,
- J.Bieder, F.Bottin, J.Bouchet, E.Bousquet, F.Bruneval,
- G.Brunin, D.Caliste, M.Cote,
- J.Denier, C. Dreyer, Ph.Ghosez, M.Giantomassi, Y.Gillet, O.Gingras,
- D.R.Hamann, G.Hautier, F.Jollet, G. Jomard,
- A.Martin, 
- H.P.C. Miranda, F.Naccarato, G.Petretto, N.A. Pike, V.Planes,
- S.Prokhorenko, T. Rangel, F.Ricci, G.-M.Rignanese, M.Royo, M.Stengel, M.Torrent,
- M.J.van Setten, B.Van Troeye, M.J.Verstraete, J.Wiktor, J.W.Zwanziger, and X.Gonze.
- Comment: a global overview of ABINIT, with focus on selected capabilities .
- Note that a version of this paper, that is not formatted for J. Chem. Phys 
- is available at https://www.abinit.org/sites/default/files/ABINIT20_JPC.pdf .
- The licence allows the authors to put it on the Web.
- DOI and bibtex: see https://docs.abinit.org/theory/bibliography/#romero2020
-
- [4] Recent developments in the ABINIT software package.
- Computer Phys. Comm. 205, 106 (2016).
- X.Gonze, F.Jollet, F.Abreu Araujo, D.Adams, B.Amadon, T.Applencourt,
- C.Audouze, J.-M.Beuken, J.Bieder, A.Bokhanchuk, E.Bousquet, F.Bruneval
- D.Caliste, M.Cote, F.Dahm, F.Da Pieve, M.Delaveau, M.Di Gennaro,
- B.Dorado, C.Espejo, G.Geneste, L.Genovese, A.Gerossier, M.Giantomassi,
- Y.Gillet, D.R.Hamann, L.He, G.Jomard, J.Laflamme Janssen, S.Le Roux,
- A.Levitt, A.Lherbier, F.Liu, I.Lukacevic, A.Martin, C.Martins,
- M.J.T.Oliveira, S.Ponce, Y.Pouillon, T.Rangel, G.-M.Rignanese,
- A.H.Romero, B.Rousseau, O.Rubel, A.A.Shukri, M.Stankovski, M.Torrent,
- M.J.Van Setten, B.Van Troeye, M.J.Verstraete, D.Waroquier, J.Wiktor,
- B.Xu, A.Zhou, J.W.Zwanziger.
- Comment: the fourth generic paper describing the ABINIT project.
- Note that a version of this paper, that is not formatted for Computer Phys. Comm. 
- is available at https://www.abinit.org/sites/default/files/ABINIT16.pdf .
- The licence allows the authors to put it on the Web.
- DOI and bibtex: see https://docs.abinit.org/theory/bibliography/#gonze2016
-
- And optionally:
-
- [5] ABINIT: First-principles approach of materials and nanosystem properties.
- Computer Phys. Comm. 180, 2582-2615 (2009).
- X. Gonze, B. Amadon, P.-M. Anglade, J.-M. Beuken, F. Bottin, P. Boulanger, F. Bruneval,
- D. Caliste, R. Caracas, M. Cote, T. Deutsch, L. Genovese, Ph. Ghosez, M. Giantomassi
- S. Goedecker, D.R. Hamann, P. Hermet, F. Jollet, G. Jomard, S. Leroux, M. Mancini, S. Mazevet,
- M.J.T. Oliveira, G. Onida, Y. Pouillon, T. Rangel, G.-M. Rignanese, D. Sangalli, R. Shaltaf,
- M. Torrent, M.J. Verstraete, G. Zerah, J.W. Zwanziger
- Comment: the third generic paper describing the ABINIT project.
- Note that a version of this paper, that is not formatted for Computer Phys. Comm. 
- is available at https://www.abinit.org/sites/default/files/ABINIT_CPC_v10.pdf .
- The licence allows the authors to put it on the Web.
- DOI and bibtex: see https://docs.abinit.org/theory/bibliography/#gonze2009
-
- Proc.   0 individual time (sec): cpu=         10.3  wall=         10.8
 
================================================================================
 
 Calculation completed.
.Delivered   0 WARNINGs and   0 COMMENTs to log file.
+Overall time at end (sec) : cpu=        681.5  wall=        691.5
