
.Version 9.6.1 of ABINIT 
.(MPI version, prepared for a x86_64_linux_intel19.1 computer) 

.Copyright (C) 1998-2021 ABINIT group . 
 ABINIT comes with ABSOLUTELY NO WARRANTY.
 It is free software, and you are welcome to redistribute it
 under certain conditions (GNU General Public License,
 see ~abinit/COPYING or http://www.gnu.org/copyleft/gpl.txt).

 ABINIT is a project of the Universite Catholique de Louvain,
 Corning Inc. and other collaborators, see ~abinit/doc/developers/contributors.txt .
 Please read https://docs.abinit.org/theory/acknowledgments for suggested
 acknowledgments of the ABINIT effort.
 For more information, see https://www.abinit.org .

.Starting date : Wed 12 Apr 2023.
- ( at 20h32 )
  
- input  file    -> t41.in
- output file    -> t41.abo
- root for input  files -> t41i
- root for output files -> t41o
 
 
 DATASET    1 : space group P3_2 2 1 (#154); Bravais hP (primitive hexag.)
================================================================================
 Values of the parameters that define the memory need for DATASET  1.
     intxc =       0    ionmov =       0      iscf =       7    lmnmax =       7
     lnmax =       7     mgfft =      60  mpssoang =       3    mqgrid =    3001
     natom =       9  nloc_mem =       1    nspden =       1   nspinor =       1
    nsppol =       1      nsym =       6    n1xccc =    2501    ntypat =       2
    occopt =       1   xclevel =       2
-    mband =          28        mffmem =           1         mkmem =           2
       mpw =        7899          nfft =      174960          nkpt =           9
================================================================================
P This job should need less than                      65.009 Mbytes of memory.
  Rough estimation (10% accuracy) of disk space for files :
_ WF disk file :     30.375 Mbytes ; DEN or POT disk file :      1.337 Mbytes.
================================================================================
 
--------------------------------------------------------------------------------
------------- Echo of variables that govern the present computation ------------
--------------------------------------------------------------------------------
-
- outvars: echo of selected default values                                      
-   iomode0 =  0 , fftalg0 =512 , wfoptalg0 =  0
-
- outvars: echo of global parameters not present in the input file              
-  max_nthreads =    0
-
 -outvars: echo values of preprocessed input variables --------
            acell      9.2843000799E+00  9.2843000799E+00  1.0213270550E+01 Bohr
              amu      2.80855000E+01  1.59994000E+01
           diemac      4.00000000E+00
             ecut      3.60000000E+01 Hartree
-          fftalg         512
           istwfk        1    0    1    0    0    0    0    0    0
              ixc          11
           jdtset        1
              kpt      0.00000000E+00  0.00000000E+00  0.00000000E+00
                       2.50000000E-01  0.00000000E+00  0.00000000E+00
                       5.00000000E-01  0.00000000E+00  0.00000000E+00
                       2.50000000E-01  2.50000000E-01  0.00000000E+00
                       0.00000000E+00  0.00000000E+00  3.33333333E-01
                       2.50000000E-01  0.00000000E+00  3.33333333E-01
                       5.00000000E-01  0.00000000E+00  3.33333333E-01
                      -2.50000000E-01  0.00000000E+00  3.33333333E-01
                       2.50000000E-01  2.50000000E-01  3.33333333E-01
         kptrlatt        4    0    0      0    4    0      0    0    3
          kptrlen      3.06398116E+01
P           mkmem           2
            natom           9
            nband          28
           ndtset           1
            ngfft          54      54      60
             nkpt           9
            nstep         200
             nsym           6
           ntypat           2
              occ      2.000000  2.000000  2.000000  2.000000  2.000000  2.000000
                       2.000000  2.000000  2.000000  2.000000  2.000000  2.000000
                       2.000000  2.000000  2.000000  2.000000  2.000000  2.000000
                       2.000000  2.000000  2.000000  2.000000  2.000000  2.000000
                       0.000000  0.000000  0.000000  0.000000
            rprim      5.0000000000E-01 -8.6602540378E-01  0.0000000000E+00
                       5.0000000000E-01  8.6602540378E-01  0.0000000000E+00
                       0.0000000000E+00  0.0000000000E+00  1.0000000000E+00
          spgroup         154
           symrel      1  0  0   0  1  0   0  0  1       1  0  0  -1 -1  0   0  0 -1
                       0  1  0  -1 -1  0   0  0  1       0  1  0   1  0  0   0  0 -1
                      -1 -1  0   1  0  0   0  0  1      -1 -1  0   0  1  0   0  0 -1
           timopt          -1
            tnons      0.0000000  0.0000000  0.0000000     0.0000000 -0.0000000  0.0000000
                      -0.0000000  0.0000000 -0.3333333     0.0000000  0.0000000 -0.3333333
                       0.0000000  0.0000000  0.3333333     0.0000000  0.0000000  0.3333333
           tolvrs      1.00000000E-08
            typat      1  1  1  2  2  2  2  2  2
              wtk        0.02083    0.12500    0.06250    0.12500    0.04167    0.12500
                         0.12500    0.12500    0.25000
           xangst      1.1422818000E+00 -1.9784901142E+00  0.0000000000E+00
                       1.1422818000E+00  1.9784901142E+00  3.6030866667E+00
                      -2.2845636000E+00  4.0347989381E-18  1.8015433333E+00
                       1.6876292400E+00 -6.0843889532E-01  6.4855560000E-01
                      -1.3707381600E+00 -1.1573103463E+00  2.4500989333E+00
                      -3.1689108000E-01  1.7657492417E+00  4.2516422667E+00
                      -3.1689108000E-01 -1.7657492417E+00 -6.4855560000E-01
                       1.6876292400E+00  6.0843889532E-01  2.9545310667E+00
                      -1.3707381600E+00  1.1573103463E+00  1.1529877333E+00
            xcart      2.1585997686E+00 -3.7388044724E+00  0.0000000000E+00
                       2.1585997686E+00  3.7388044724E+00  6.8088470331E+00
                      -4.3171995372E+00  7.6246649943E-18  3.4044235165E+00
                       3.1891570774E+00 -1.1497828807E+00  1.2255924659E+00
                      -2.5903197223E+00 -2.1869996053E+00  4.6300159825E+00
                      -5.9883735515E-01  3.3367824861E+00  8.0344394990E+00
                      -5.9883735515E-01 -3.3367824861E+00 -1.2255924659E+00
                       3.1891570774E+00  1.1497828807E+00  5.5832545671E+00
                      -2.5903197223E+00  2.1869996053E+00  2.1788310506E+00
             xred      4.6500000000E-01 -1.1657958272E-17  0.0000000000E+00
                      -1.1657958272E-17  4.6500000000E-01  6.6666666667E-01
                      -4.6500000000E-01 -4.6500000000E-01  3.3333333333E-01
                       4.1500000000E-01  2.7200000000E-01  1.2000000000E-01
                      -1.4300000000E-01 -4.1500000000E-01  4.5333333333E-01
                      -2.7200000000E-01  1.4300000000E-01  7.8666666667E-01
                       1.4300000000E-01 -2.7200000000E-01 -1.2000000000E-01
                       2.7200000000E-01  4.1500000000E-01  5.4666666667E-01
                      -4.1500000000E-01 -1.4300000000E-01  2.1333333333E-01
            znucl       14.00000    8.00000
 
================================================================================
 
 chkinp: Checking input parameters for consistency, jdtset=   1.
 
================================================================================
== DATASET  1 ==================================================================
-   mpi_nproc: 8, omp_nthreads: -1 (-1 if OMP is not activated)
-    --> not optimal distribution: autoparal keyword recommended in input file <--
 

--- !DatasetInfo
iteration_state: {dtset: 1, }
dimensions: {natom: 9, nkpt: 9, mband: 28, nsppol: 1, nspinor: 1, nspden: 1, mpw: 7899, }
cutoff_energies: {ecut:  36.0, pawecutdg:  -1.0, }
electrons: {nelect:   4.80000000E+01, charge:   0.00000000E+00, occopt:   1.00000000E+00, tsmear:   1.00000000E-02, }
meta: {optdriver: 0, ionmov: 0, optcell: 0, iscf: 7, paral_kgb: 0, }
...

 Exchange-correlation functional for the present dataset will be:
  GGA: Perdew-Burke-Ernzerhof functional - ixc=11
 Citation for XC functional:
  J.P.Perdew, K.Burke, M.Ernzerhof, PRL 77, 3865 (1996)
 
 Real(R)+Recip(G) space primitive vectors, cartesian coordinates (Bohr,Bohr^-1):
 R(1)=  4.6421500 -8.0404397  0.0000000  G(1)=  0.1077087 -0.0621857  0.0000000
 R(2)=  4.6421500  8.0404397  0.0000000  G(2)=  0.1077087  0.0621857  0.0000000
 R(3)=  0.0000000  0.0000000 10.2132705  G(3)=  0.0000000  0.0000000  0.0979118
 Unit cell volume ucvol=  7.6241917E+02 bohr^3
 Angles (23,13,12)=  9.00000000E+01  9.00000000E+01  1.20000000E+02 degrees
 
 getcut: wavevector=  0.0000  0.0000  0.0000  ngfft=  54  54  60
         ecut(hartree)=     36.000   => boxcut(ratio)=   2.15391
 
--- Pseudopotential description ------------------------------------------------
- pspini: atom type   1  psp file is Si_r.psp8
- pspatm: opening atomic psp file    Si_r.psp8
- Si    ONCVPSP  r_core=  1.60  1.72  1.92
- 14.00000   4.00000    160518                znucl, zion, pspdat
    8   11    2    4       600   0.00000      pspcod,pspxc,lmax,lloc,mmax,r2well
    5.99000000000000    4.00000000000000    0.00000000000000   rchrg,fchrg,qchrg
     nproj     2     3     2
     spin-orbit psp, extension_switch     3
        nprojso     4     3
  pspatm : epsatm=    9.34878155
         --- l  ekb(1:nproj) -->
             0    0.840891    5.077806
             1    2.715487    0.601430    0.000397
             2  -10.098948   -0.937382
  spin-orbit 1
  spin-orbit 1
  spin-orbit 1
  spin-orbit 1
  spin-orbit 2
  spin-orbit 2
  spin-orbit 2
 pspatm: atomic psp has been read  and splines computed
 
- pspini: atom type   2  psp file is O.psp8
- pspatm: opening atomic psp file    O.psp8
- O     ONCVPSP  r_core=  1.36  1.46  1.26
-  8.00000   6.00000    151103                znucl, zion, pspdat
    8   11    2    4       600   0.00000      pspcod,pspxc,lmax,lloc,mmax,r2well
    5.99000000000000    4.00000000000000    0.00000000000000   rchrg,fchrg,qchrg
     nproj     2     2     1
     extension_switch     1
  pspatm : epsatm=    6.19401560
         --- l  ekb(1:nproj) -->
             0    5.257212    0.704241
             1   -5.135443   -1.451781
             2   -4.371486
 pspatm: atomic psp has been read  and splines computed
 
   3.13010104E+03                                ecore*ucvol(ha*bohr**3)
--------------------------------------------------------------------------------
 
_setup2: Arith. and geom. avg. npw (full set) are    7863.729    7863.720
 
================================================================================

--- !BeginCycle
iteration_state: {dtset: 1, }
solver: {iscf: 7, nstep: 200, nline: 4, wfoptalg: 0, }
tolerances: {tolvrs: 1.00E-08, }
...
 
     iter   Etot(hartree)      deltaE(h)  residm     vres2
 ETOT  1  -111.71427931029    -1.117E+02 1.443E-01 1.503E+03
 ETOT  2  -111.76616466266    -5.189E-02 5.417E-03 1.605E+03
 ETOT  3  -112.35632808698    -5.902E-01 7.931E-03 6.171E+00
 ETOT  4  -112.35939888686    -3.071E-03 3.141E-03 9.303E-02
 ETOT  5  -112.35941292646    -1.404E-05 1.174E-03 3.101E-03
 ETOT  6  -112.35941330709    -3.806E-07 1.051E-03 1.477E-04
 ETOT  7  -112.35941332418    -1.709E-08 3.754E-04 1.014E-05
 ETOT  8  -112.35941332517    -9.827E-10 3.753E-04 1.114E-07
 ETOT  9  -112.35941332518    -1.495E-11 1.084E-04 2.298E-09
 
 At SCF step    9       vres2   =  2.30E-09 < tolvrs=  1.00E-08 =>converged.
 
 Cartesian components of stress tensor (hartree/bohr^3)
  sigma(1 1)= -1.73427182E-04  sigma(3 2)=  0.00000000E+00
  sigma(2 2)= -1.73427182E-04  sigma(3 1)=  0.00000000E+00
  sigma(3 3)= -2.25797376E-04  sigma(2 1)=  0.00000000E+00
 

--- !ResultsGS
iteration_state: {dtset: 1, }
comment   : Summary of ground state results
lattice_vectors:
- [  4.6421500,  -8.0404397,   0.0000000, ]
- [  4.6421500,   8.0404397,   0.0000000, ]
- [  0.0000000,   0.0000000,  10.2132705, ]
lattice_lengths: [   9.28430,    9.28430,   10.21327, ]
lattice_angles: [ 90.000,  90.000, 120.000, ] # degrees, (23, 13, 12)
lattice_volume:   7.6241917E+02
convergence: {deltae: -1.495E-11, res2:  2.298E-09, residm:  1.084E-04, diffor: null, }
etotal    :  -1.12359413E+02
entropy   :   0.00000000E+00
fermie    :   7.04939940E-03
cartesian_stress_tensor: # hartree/bohr^3
- [ -1.73427182E-04,   0.00000000E+00,   0.00000000E+00, ]
- [  0.00000000E+00,  -1.73427182E-04,   0.00000000E+00, ]
- [  0.00000000E+00,   0.00000000E+00,  -2.25797376E-04, ]
pressure_GPa:   5.6160E+00
xred      :
- [  4.6500E-01,  -1.1658E-17,   0.0000E+00, Si]
- [ -1.1658E-17,   4.6500E-01,   6.6667E-01, Si]
- [ -4.6500E-01,  -4.6500E-01,   3.3333E-01, Si]
- [  4.1500E-01,   2.7200E-01,   1.2000E-01,  O]
- [ -1.4300E-01,  -4.1500E-01,   4.5333E-01,  O]
- [ -2.7200E-01,   1.4300E-01,   7.8667E-01,  O]
- [  1.4300E-01,  -2.7200E-01,  -1.2000E-01,  O]
- [  2.7200E-01,   4.1500E-01,   5.4667E-01,  O]
- [ -4.1500E-01,  -1.4300E-01,   2.1333E-01,  O]
cartesian_forces: # hartree/bohr
- [ -7.75386834E-04,   1.34300939E-03,   1.92747056E-19, ]
- [ -7.75386834E-04,  -1.34300939E-03,   1.92747053E-19, ]
- [  1.55077367E-03,   9.22998976E-20,   1.92747053E-19, ]
- [ -7.22082716E-03,   9.72361828E-04,  -8.79393385E-03, ]
- [  4.45250363E-03,   5.76723885E-03,  -8.79393385E-03, ]
- [  2.76832354E-03,  -6.73960068E-03,  -8.79393385E-03, ]
- [  2.76832354E-03,   6.73960068E-03,   8.79393385E-03, ]
- [ -7.22082716E-03,  -9.72361828E-04,   8.79393385E-03, ]
- [  4.45250363E-03,  -5.76723885E-03,   8.79393385E-03, ]
force_length_stats: {min:   1.55077367E-03, max:   1.14201184E-02, mean:   8.13033684E-03, }
...

 Integrated electronic density in atomic spheres:
 ------------------------------------------------
 Atom  Sphere_radius  Integrated_density
    1        2.00000          2.39674682
    2        2.00000          2.39674682
    3        2.00000          2.39674682
    4        2.00000          6.54744923
    5        2.00000          6.54744923
    6        2.00000          6.54744923
    7        2.00000          6.54744923
    8        2.00000          6.54744923
    9        2.00000          6.54744923
================================================================================
 
 ----iterations are completed or convergence reached----
 
 Mean square residual over all n,k,spin=   16.243E-07; max=  10.844E-05
 reduced coordinates (array xred) for    9 atoms
       0.465000000000     -0.000000000000      0.000000000000
      -0.000000000000      0.465000000000      0.666666666667
      -0.465000000000     -0.465000000000      0.333333333333
       0.415000000000      0.272000000000      0.120000000000
      -0.143000000000     -0.415000000000      0.453333333333
      -0.272000000000      0.143000000000      0.786666666667
       0.143000000000     -0.272000000000     -0.120000000000
       0.272000000000      0.415000000000      0.546666666667
      -0.415000000000     -0.143000000000      0.213333333333
 rms dE/dt=  5.3221E-02; max dE/dt=  8.9815E-02; dE/dt below (all hartree)
    1       0.014397848097     -0.007198924048     -0.000000000000
    2      -0.007198924048      0.014397848097      0.000000000000
    3      -0.007198924048     -0.007198924048      0.000000000000
    4       0.041338379780      0.025701946444      0.089814825576
    5       0.025701946444     -0.067040326225      0.089814825576
    6      -0.067040326225      0.041338379780      0.089814825576
    7       0.041338379780     -0.067040326225     -0.089814825576
    8       0.025701946444      0.041338379780     -0.089814825576
    9      -0.067040326225      0.025701946444     -0.089814825576
 
 cartesian coordinates (angstrom) at end:
    1      1.14228180000000    -1.97849011415109     0.00000000000000
    2      1.14228180000000     1.97849011415109     3.60308666666667
    3     -2.28456360000000    -0.00000000000000     1.80154333333333
    4      1.68762924000000    -0.60843889531958     0.64855560000000
    5     -1.37073816000000    -1.15731034634214     2.45009893333333
    6     -0.31689108000000     1.76574924166173     4.25164226666667
    7     -0.31689108000000    -1.76574924166173    -0.64855560000000
    8      1.68762924000000     0.60843889531958     2.95453106666667
    9     -1.37073816000000     1.15731034634214     1.15298773333333
 
 cartesian forces (hartree/bohr) at end:
    1     -0.00077538683437     0.00134300939265     0.00000000000000
    2     -0.00077538683437    -0.00134300939265     0.00000000000000
    3      0.00155077366874     0.00000000000000     0.00000000000000
    4     -0.00722082716498     0.00097236182781    -0.00879393384713
    5      0.00445250362704     0.00576723884733    -0.00879393384713
    6      0.00276832353794    -0.00673960067515    -0.00879393384713
    7      0.00276832353794     0.00673960067515     0.00879393384713
    8     -0.00722082716498    -0.00097236182781     0.00879393384713
    9      0.00445250362704    -0.00576723884733     0.00879393384713
 frms,max,avg= 5.4082561E-03 8.7939338E-03   0.000E+00  0.000E+00  0.000E+00 h/b
 
 cartesian forces (eV/Angstrom) at end:
    1     -0.03987199079535     0.06906031385683     0.00000000000000
    2     -0.03987199079535    -0.06906031385683     0.00000000000000
    3      0.07974398159071     0.00000000000000     0.00000000000000
    4     -0.37130983077757     0.05000085135553    -0.45220222199537
    5      0.22895692287330     0.29656332045216    -0.45220222199537
    6      0.14235290790427    -0.34656417180769    -0.45220222199537
    7      0.14235290790427     0.34656417180769     0.45220222199537
    8     -0.37130983077757    -0.05000085135553     0.45220222199537
    9      0.22895692287330    -0.29656332045216     0.45220222199537
 frms,max,avg= 2.7810369E-01 4.5220222E-01   0.000E+00  0.000E+00  0.000E+00 e/A
 length scales=  9.284300079912  9.284300079912 10.213270549578 bohr
              =  4.913040000000  4.913040000000  5.404630000000 angstroms
 prteigrs : about to open file t41o_DS1_EIG
 Fermi (or HOMO) energy (hartree) =   0.00705   Average Vxc (hartree)=  -0.33694
 Eigenvalues (hartree) for nkpt=   9  k points:
 kpt#   1, nband= 28, wtk=  0.02083, kpt=  0.0000  0.0000  0.0000 (reduced coord)
  -0.70367   -0.64749   -0.64749   -0.62352   -0.62211   -0.62211   -0.29541   -0.29541
  -0.19292   -0.19033   -0.18464   -0.18464   -0.09991   -0.09991   -0.09000   -0.08355
  -0.04808   -0.04808   -0.04472   -0.02843   -0.02843   -0.01711   -0.00249   -0.00249
   0.22990    0.35174    0.35175    0.36676
 prteigrs : prtvol=0 or 1, do not print more k-points.
 

--- !EnergyTerms
iteration_state     : {dtset: 1, }
comment             : Components of total free energy in Hartree
kinetic             :  7.35950527286913E+01
hartree             :  3.87041060168479E+01
xc                  : -3.03833489470310E+01
Ewald energy        : -6.95068319280861E+01
psp_core            :  4.10548576173644E+00
local_psp           : -1.13960863649652E+02
non_local_psp       : -1.49130133076873E+01
total_energy        : -1.12359413325181E+02
total_energy_eV     : -3.05745512627590E+03
band_energy         : -1.16278690343566E+01
...

 
 Cartesian components of stress tensor (hartree/bohr^3)
  sigma(1 1)= -1.73427182E-04  sigma(3 2)=  0.00000000E+00
  sigma(2 2)= -1.73427182E-04  sigma(3 1)=  0.00000000E+00
  sigma(3 3)= -2.25797376E-04  sigma(2 1)=  0.00000000E+00
 
-Cartesian components of stress tensor (GPa)         [Pressure=  5.6160E+00 GPa]
- sigma(1 1)= -5.10240301E+00  sigma(3 2)=  0.00000000E+00
- sigma(2 2)= -5.10240301E+00  sigma(3 1)=  0.00000000E+00
- sigma(3 3)= -6.64318703E+00  sigma(2 1)=  0.00000000E+00
 
== END DATASET(S) ==============================================================
================================================================================
  
 -outvars: echo values of variables after computation  --------
            acell      9.2843000799E+00  9.2843000799E+00  1.0213270550E+01 Bohr
              amu      2.80855000E+01  1.59994000E+01
           diemac      4.00000000E+00
             ecut      3.60000000E+01 Hartree
           etotal1    -1.1235941333E+02
            fcart1    -7.7538683437E-04  1.3430093927E-03  1.9274705611E-19
                      -7.7538683437E-04 -1.3430093927E-03  1.9274705289E-19
                       1.5507736687E-03  9.2299897633E-20  1.9274705289E-19
                      -7.2208271650E-03  9.7236182781E-04 -8.7939338471E-03
                       4.4525036270E-03  5.7672388473E-03 -8.7939338471E-03
                       2.7683235379E-03 -6.7396006751E-03 -8.7939338471E-03
                       2.7683235379E-03  6.7396006751E-03  8.7939338471E-03
                      -7.2208271650E-03 -9.7236182781E-04  8.7939338471E-03
                       4.4525036270E-03 -5.7672388473E-03  8.7939338471E-03
-          fftalg         512
           istwfk        1    0    1    0    0    0    0    0    0
              ixc          11
           jdtset        1
              kpt      0.00000000E+00  0.00000000E+00  0.00000000E+00
                       2.50000000E-01  0.00000000E+00  0.00000000E+00
                       5.00000000E-01  0.00000000E+00  0.00000000E+00
                       2.50000000E-01  2.50000000E-01  0.00000000E+00
                       0.00000000E+00  0.00000000E+00  3.33333333E-01
                       2.50000000E-01  0.00000000E+00  3.33333333E-01
                       5.00000000E-01  0.00000000E+00  3.33333333E-01
                      -2.50000000E-01  0.00000000E+00  3.33333333E-01
                       2.50000000E-01  2.50000000E-01  3.33333333E-01
         kptrlatt        4    0    0      0    4    0      0    0    3
          kptrlen      3.06398116E+01
P           mkmem           2
            natom           9
            nband          28
           ndtset           1
            ngfft          54      54      60
             nkpt           9
            nstep         200
             nsym           6
           ntypat           2
              occ      2.000000  2.000000  2.000000  2.000000  2.000000  2.000000
                       2.000000  2.000000  2.000000  2.000000  2.000000  2.000000
                       2.000000  2.000000  2.000000  2.000000  2.000000  2.000000
                       2.000000  2.000000  2.000000  2.000000  2.000000  2.000000
                       0.000000  0.000000  0.000000  0.000000
            rprim      5.0000000000E-01 -8.6602540378E-01  0.0000000000E+00
                       5.0000000000E-01  8.6602540378E-01  0.0000000000E+00
                       0.0000000000E+00  0.0000000000E+00  1.0000000000E+00
          spgroup         154
           strten1    -1.7342718249E-04 -1.7342718244E-04 -2.2579737577E-04
                       0.0000000000E+00  0.0000000000E+00  0.0000000000E+00
           symrel      1  0  0   0  1  0   0  0  1       1  0  0  -1 -1  0   0  0 -1
                       0  1  0  -1 -1  0   0  0  1       0  1  0   1  0  0   0  0 -1
                      -1 -1  0   1  0  0   0  0  1      -1 -1  0   0  1  0   0  0 -1
           timopt          -1
            tnons      0.0000000  0.0000000  0.0000000     0.0000000 -0.0000000  0.0000000
                      -0.0000000  0.0000000 -0.3333333     0.0000000  0.0000000 -0.3333333
                       0.0000000  0.0000000  0.3333333     0.0000000  0.0000000  0.3333333
           tolvrs      1.00000000E-08
            typat      1  1  1  2  2  2  2  2  2
              wtk        0.02083    0.12500    0.06250    0.12500    0.04167    0.12500
                         0.12500    0.12500    0.25000
           xangst      1.1422818000E+00 -1.9784901142E+00  0.0000000000E+00
                       1.1422818000E+00  1.9784901142E+00  3.6030866667E+00
                      -2.2845636000E+00  4.0347989381E-18  1.8015433333E+00
                       1.6876292400E+00 -6.0843889532E-01  6.4855560000E-01
                      -1.3707381600E+00 -1.1573103463E+00  2.4500989333E+00
                      -3.1689108000E-01  1.7657492417E+00  4.2516422667E+00
                      -3.1689108000E-01 -1.7657492417E+00 -6.4855560000E-01
                       1.6876292400E+00  6.0843889532E-01  2.9545310667E+00
                      -1.3707381600E+00  1.1573103463E+00  1.1529877333E+00
            xcart      2.1585997686E+00 -3.7388044724E+00  0.0000000000E+00
                       2.1585997686E+00  3.7388044724E+00  6.8088470331E+00
                      -4.3171995372E+00  7.6246649943E-18  3.4044235165E+00
                       3.1891570774E+00 -1.1497828807E+00  1.2255924659E+00
                      -2.5903197223E+00 -2.1869996053E+00  4.6300159825E+00
                      -5.9883735515E-01  3.3367824861E+00  8.0344394990E+00
                      -5.9883735515E-01 -3.3367824861E+00 -1.2255924659E+00
                       3.1891570774E+00  1.1497828807E+00  5.5832545671E+00
                      -2.5903197223E+00  2.1869996053E+00  2.1788310506E+00
             xred      4.6500000000E-01 -1.1657958272E-17  0.0000000000E+00
                      -1.1657958272E-17  4.6500000000E-01  6.6666666667E-01
                      -4.6500000000E-01 -4.6500000000E-01  3.3333333333E-01
                       4.1500000000E-01  2.7200000000E-01  1.2000000000E-01
                      -1.4300000000E-01 -4.1500000000E-01  4.5333333333E-01
                      -2.7200000000E-01  1.4300000000E-01  7.8666666667E-01
                       1.4300000000E-01 -2.7200000000E-01 -1.2000000000E-01
                       2.7200000000E-01  4.1500000000E-01  5.4666666667E-01
                      -4.1500000000E-01 -1.4300000000E-01  2.1333333333E-01
            znucl       14.00000    8.00000
 
================================================================================
 
 Test the timer : 
  a combined call timab(*,1,tsec) + timab(*,2,tsec) is 
- CPU time =    1.8469E-06 sec,    Wall time =    1.8471E-06 sec

- Total cpu        time (s,m,h):        133.2        2.22      0.037
- Total wall clock time (s,m,h):        133.7        2.23      0.037
-
- For major independent code sections, cpu and wall times (sec),
-  as well as % of the time and number of calls for node 0
-
-<BEGIN_TIMER mpi_nprocs = 8, omp_nthreads = 1, mpi_rank = 0>
- cpu_time =           16.4, wall_time =           16.8
-
- routine                            cpu     %          wall     %      number of calls Gflops    Speedup Efficacity
-                                                                        (-1=no count)
- nonlop(apply)                     5.650   4.2         5.661   4.2           3080      -1.00        1.00       1.00
- fourwf%(pot)                      5.059   3.8         5.071   3.8           3080      -1.00        1.00       1.00
- projbd                            2.321   1.7         2.328   1.7           4928      -1.00        1.00       1.00
- fourwf%(den)                      0.358   0.3         0.359   0.3            432      -1.00        1.00       1.00
- pspini                            0.344   0.3         0.353   0.3              1      -1.00        0.97       0.97
- fourdp                            0.245   0.2         0.256   0.2            126      -1.00        0.96       0.96
- vtowfk(ssdiag)                    0.242   0.2         0.242   0.2             -1      -1.00        1.00       1.00
- nonlop(forstr)                    0.236   0.2         0.236   0.2             48      -1.00        1.00       1.00
- xc:pot/=fourdp                    0.225   0.2         0.226   0.2             10      -1.00        1.00       1.00
- ewald                             0.153   0.1         0.153   0.1              1      -1.00        1.00       1.00
- stress                            0.144   0.1         0.145   0.1              1      -1.00        0.99       0.99
- getghc-other                      0.107   0.1         0.102   0.1             -1      -1.00        1.05       1.05
- timing timab                      0.106   0.1         0.106   0.1             11      -1.00        1.00       1.00
- ewald2 (+vdw_dftd)                0.102   0.1         0.102   0.1              1      -1.00        1.00       1.00
- mkcore                            0.076   0.1         0.076   0.1              3      -1.00        1.00       1.00
- forces                            0.044   0.0         0.044   0.0              1      -1.00        1.00       1.00
- symrhg(no FFT)                    0.042   0.0         0.042   0.0              9      -1.00        1.00       1.00
- vtorho(MPI)                       0.041   0.0         0.041   0.0              9      -1.00        0.99       0.99
- mkffnl                            0.028   0.0         0.028   0.0             20      -1.00        1.00       1.00
- newkpt(excl. rwwf   )             0.028   0.0         0.028   0.0             -1      -1.00        0.99       0.99
- invars2                           0.017   0.0         0.017   0.0              1      -1.00        1.00       1.00
- vtowfk(contrib)                   0.010   0.0         0.010   0.0             18      -1.00        1.01       1.01
- setsym                            0.008   0.0         0.010   0.0              1      -1.00        0.78       0.78
- abinit(2)                         0.006   0.0         0.012   0.0              1      -1.00        0.53       0.53
- scfcv-scprqt                      0.001   0.0         0.004   0.0              9      -1.00        0.19       0.19
- kpgsph                            0.000   0.0         0.000   0.0             11      -1.00        1.00       1.00
- others (112)                      0.000   0.0         0.000   0.0             -1      -1.00        1.06       1.06
-<END_TIMER>
-
- subtotal                         15.593  11.7        15.655  11.7                                  1.00       1.00

- For major independent code sections, cpu and wall times (sec),
- as well as % of the total time and number of calls 

-<BEGIN_TIMER mpi_nprocs = 8, omp_nthreads = 1, mpi_rank = world>
- cpu_time =         133.2, wall_time =         133.7
-
- routine                            cpu     %          wall     %      number of calls Gflops    Speedup Efficacity
-                                                                        (-1=no count)
- vtorho(MPI)                      51.219  38.5        51.231  38.3             72      -1.00        1.00       1.00
- nonlop(apply)                    25.301  19.0        25.341  19.0          13860      -1.00        1.00       1.00
- fourwf%(pot)                     22.762  17.1        22.814  17.1          13860      -1.00        1.00       1.00
- projbd                           10.363   7.8        10.391   7.8          22176      -1.00        1.00       1.00
- pspini                            2.765   2.1         2.782   2.1              8      -1.00        0.99       0.99
- fourdp                            1.912   1.4         1.943   1.5           1008      -1.00        0.98       0.98
- xc:pot/=fourdp                    1.737   1.3         1.743   1.3             80      -1.00        1.00       1.00
- fourwf%(den)                      1.605   1.2         1.608   1.2           1944      -1.00        1.00       1.00
- ewald                             1.221   0.9         1.222   0.9              8      -1.00        1.00       1.00
- stress                            1.151   0.9         1.151   0.9              8      -1.00        1.00       1.00
- vtowfk(ssdiag)                    1.124   0.8         1.125   0.8             -8      -1.00        1.00       1.00
- nonlop(forstr)                    1.058   0.8         1.059   0.8            216      -1.00        1.00       1.00
- timing timab                      1.038   0.8         1.039   0.8             88      -1.00        1.00       1.00
- ewald2 (+vdw_dftd)                0.817   0.6         0.817   0.6              8      -1.00        1.00       1.00
- mkcore                            0.607   0.5         0.608   0.5             24      -1.00        1.00       1.00
- getghc-other                      0.470   0.4         0.449   0.3             -8      -1.00        1.05       1.05
- forces                            0.349   0.3         0.350   0.3              8      -1.00        1.00       1.00
- symrhg(no FFT)                    0.329   0.2         0.329   0.2             72      -1.00        1.00       1.00
- newkpt(excl. rwwf   )             0.289   0.2         0.290   0.2             -8      -1.00        1.00       1.00
- scfcv-scprqt                      0.171   0.1         0.174   0.1             72      -1.00        0.98       0.98
- invars2                           0.136   0.1         0.136   0.1              8      -1.00        1.00       1.00
- mkffnl                            0.127   0.1         0.127   0.1             90      -1.00        1.00       1.00
- setsym                            0.062   0.0         0.065   0.0              8      -1.00        0.96       0.96
- vtowfk(contrib)                   0.048   0.0         0.047   0.0             81      -1.00        1.01       1.01
- abinit(2)                         0.045   0.0         0.050   0.0              8      -1.00        0.89       0.89
- kpgsph                            0.003   0.0         0.003   0.0             81      -1.00        1.00       1.00
- vtowfk  (1)                       0.000   0.0         0.000   0.0             81      -1.00        1.11       1.11
- inwffil(excl. calls)              0.000   0.0         0.001   0.0              8      -1.00        0.39       0.39
- others (110)                      0.000   0.0         0.000   0.0             -1      -1.00        0.00       0.00
-<END_TIMER>

- subtotal                        126.710  95.1       126.895  94.9                                  1.00       1.00

 Partitioning of abinit
- abinit                          133.198 100.0       133.717 100.0              8                   1.00       1.00
 
- abinit(1)                         0.392   0.3         0.415   0.3              8                   0.94       0.94
- abinit(2)                         0.045   0.0         0.050   0.0              8                   0.89       0.89
- indefo+macroin+invars2m           0.136   0.1         0.136   0.1              8                   1.00       1.00
- abinit(4)                         0.369   0.3         0.429   0.3              8                   0.86       0.86
- abinit(5)                         0.613   0.5         0.618   0.5              8                   0.99       0.99
- driver                          130.919  98.3       131.287  98.2              8                   1.00       1.00
- abinit(6)                         0.020   0.0         0.083   0.1              8                   0.25       0.25
- timing timab                      1.038   0.8         1.039   0.8             88                   1.00       1.00

- subtotal                        133.198 100.0       133.717 100.0                                  1.00       1.00

 Partitioning of driver
- driver                          130.919  98.3       131.287  98.2              8                   1.00       1.00
 
- driver(aft. select case)          0.161   0.1         0.161   0.1              8                   1.00       1.00
- (other)                         130.753  98.2       131.118  98.1             -1                   1.00       1.00

- subtotal                        130.919  98.3       131.287  98.2                                  1.00       1.00

 Partitioning of gstateimg+gstate
- gstateimg                       130.752  98.2       131.118  98.1              8                   1.00       1.00
 
- gstate(1)                         0.423   0.3         0.427   0.3             16                   0.99       0.99
- gstate(pspini)                    2.765   2.1         2.782   2.1              8                   0.99       0.99
- gstate(init rhor rhog)            0.125   0.1         0.149   0.1              8                   0.84       0.84
- gstate(init history)              0.055   0.0         0.055   0.0              8                   1.00       1.00
- gstate(...scfcv)                125.923  94.5       126.098  94.3              8                   1.00       1.00
- gstate(prtwf)                     1.445   1.1         1.573   1.2              8                   0.92       0.92

- subtotal                        130.752  98.2       131.117  98.1                                  1.00       1.00

 Partitioning of scfcv_core
- scfcv_core                      125.923  94.5       126.097  94.3              8                   1.00       1.00
 
- scfcv_core(iniloop, setv          1.821   1.4         1.824   1.4             72                   1.00       1.00
- scfcv_core(vtorho(f))           116.753  87.7       116.871  87.4             72                   1.00       1.00
- scfcv-scprqt                      0.171   0.1         0.174   0.1             72                   0.98       0.98
- scfcv_core(rhotov)                3.062   2.3         3.072   2.3             72                   1.00       1.00
- scfcv_core(mix pot)               0.605   0.5         0.613   0.5             64                   0.99       0.99
- scfcv_core(afterscfloop)          3.462   2.6         3.465   2.6              8                   1.00       1.00
- scfcv_core(outscfcv)              0.030   0.0         0.056   0.0              8                   0.53       0.53

- subtotal                        125.923  94.5       126.097  94.3                                  1.00       1.00

 Partitioning of rhotov
- rhotov                            3.062   2.3         3.072   2.3             72                   1.00       1.00
 
- rhotov(rhotoxc)                   2.628   2.0         2.635   2.0             72                   1.00       1.00
- rhotov(other)                     0.136   0.1         0.136   0.1             72                   0.99       0.99
- (other)                           0.277   0.2         0.279   0.2             -1                   0.99       0.99

- subtotal                          3.062   2.3         3.072   2.3                                  1.00       1.00

 Partitioning of vtorho
- vtorho                          116.752  87.7       116.870  87.4             72                   1.00       1.00
 
- vtorho(bef. kpt  loop)            0.035   0.0         0.035   0.0             72                   0.99       0.99
- vtorho(bef. vtowfk)               0.140   0.1         0.141   0.1             81                   1.00       1.00
- vtowfk                           64.175  48.2        64.273  48.1             81                   1.00       1.00
- vtorho(MPI)                      51.219  38.5        51.231  38.3             72                   1.00       1.00
- vtorho(highest occ. eig)          0.475   0.4         0.475   0.4             72                   1.00       1.00
- vtorho(mkrho 2)                   0.675   0.5         0.682   0.5            144                   0.99       0.99

- subtotal                        116.752  87.7       116.870  87.4                                  1.00       1.00

 Partitioning of vtowfk
- vtowfk                           64.175  48.2        64.273  48.1             81                   1.00       1.00
 
- cgwf                             61.397  46.1        61.492  46.0             99                   1.00       1.00
- vtowfk(subdiago)                  0.334   0.3         0.335   0.3             99                   1.00       1.00
- vtowfk(pw_orthon)                 0.735   0.6         0.735   0.5             99                   1.00       1.00
- vtowfk(2)                         0.055   0.0         0.055   0.0             -8                   1.00       1.00
- fourwf%vtowfk                     1.605   1.2         1.608   1.2           1944                   1.00       1.00
- vtowfk(3)                         0.046   0.0         0.045   0.0             -8                   1.01       1.01

- subtotal                         64.175  48.2        64.273  48.1                                  1.00       1.00

 Partitioning of cgwf
- cgwf                             61.397  46.1        61.492  46.0             99                   1.00       1.00
 
- getghc%cgwf                      48.534  36.4        48.604  36.3          13860                   1.00       1.00
- cgwf-O(npw)                       2.501   1.9         2.497   1.9             -8                   1.00       1.00
- projbd%cgwf                      10.363   7.8        10.391   7.8          22176                   1.00       1.00

- subtotal                         61.397  46.1        61.492  46.0                                  1.00       1.00

 Partitioning of getghc
- getghc                           48.534  36.4        48.604  36.3          13860                   1.00       1.00
 
- fourwf%getghc                    22.762  17.1        22.814  17.1          13860                   1.00       1.00
- nonlop%getghc                    25.301  19.0        25.341  19.0          13860                   1.00       1.00
- getghc-other                      0.470   0.4         0.449   0.3             -8                   1.05       1.05

- subtotal                         48.534  36.4        48.604  36.3                                  1.00       1.00

 Partitioning of fourwf (upwards partitioning)
- fourwf                           24.368  18.3        24.422  18.3          15804                   1.00       1.00
 
- fourwf%getghc                    22.762  17.1        22.814  17.1          13860                   1.00       1.00
- fourwf%vtowfk                     1.605   1.2         1.608   1.2           1944                   1.00       1.00

- subtotal                         24.368  18.3        24.422  18.3                                  1.00       1.00

 Partitioning of inwffil
- inwffil                           0.289   0.2         0.290   0.2              8                   1.00       1.00
 
- inwffil(call newkpt)              0.289   0.2         0.290   0.2              8                   1.00       1.00

- subtotal                          0.289   0.2         0.290   0.2                                  1.00       1.00

 Partitioning of newkpt
- newkpt                            0.289   0.2         0.290   0.2              8                   1.00       1.00
 
- newkpt(call wfconv)               0.126   0.1         0.126   0.1              9                   1.00       1.00
- newkpt(after loop   )             0.163   0.1         0.163   0.1              8                   1.00       1.00

- subtotal                          0.289   0.2         0.290   0.2                                  1.00       1.00

 Partitioning of newvtr
- newvtr                            0.605   0.5         0.612   0.5             64                   0.99       0.99
 
- newvtr(bef. prcref_PMA)           0.031   0.0         0.031   0.0             64                   0.99       0.99
- newvtr(call prcref_PMA)           0.299   0.2         0.300   0.2             64                   1.00       1.00
- newvtr(aft. prcref_PMA)           0.233   0.2         0.238   0.2             64                   0.98       0.98

- subtotal                          0.605   0.5         0.612   0.5                                  0.99       0.99

 Partitioning of  fourdp (upwards partitioning)
- fourdp                            1.912   1.4         1.943   1.5           1008                   0.98       0.98
 
- fourdp%(other)                    1.912   1.4         1.943   1.5           1008                   0.98       0.98

- subtotal                          1.912   1.4         1.943   1.5                                  0.98       0.98

 Partitioning of afterscfloop
- afterscfloop                      3.462   2.6         3.464   2.6              8                   1.00       1.00
 
- afterscfloop(forstr)              3.462   2.6         3.464   2.6              8                   1.00       1.00

- subtotal                          3.462   2.6         3.464   2.6                                  1.00       1.00

 Partitioning of forstr
- forstr                            3.462   2.6         3.464   2.6              8                   1.00       1.00
 
- forstr(forstrnps)                 1.962   1.5         1.963   1.5              8                   1.00       1.00
- forstr(forces)                    0.350   0.3         0.350   0.3              8                   1.00       1.00
- forstr(stress)                    1.151   0.9         1.152   0.9              8                   1.00       1.00

- subtotal                          3.462   2.6         3.464   2.6                                  1.00       1.00

 Partitioning of forstrnps
- forstrnps                         1.962   1.5         1.962   1.5              8                   1.00       1.00
 
- forstrnps(nonlop+prep_ba          1.058   0.8         1.059   0.8            216                   1.00       1.00
- forstrnps:synchr                  0.867   0.7         0.868   0.6             16                   1.00       1.00

- subtotal                          1.962   1.5         1.962   1.5                                  1.00       1.00

 Partitioning of outscfcv
- outscfcv                          0.030   0.0         0.056   0.0              8                   0.53       0.53
 
- outscfcv(output GSR)              0.019   0.0         0.032   0.0              8                   0.59       0.59

- subtotal                          0.029   0.0         0.055   0.0                                  0.53       0.53
-
-Synchronisation (=leave_test) and MPI calls 
- communic.MPI                     51.425  38.6        51.432  38.5          55038                   1.00       1.00
-
- forstrnps:synchr                  0.867   0.7         0.868   0.6             16                   1.00       1.00
- subtotal                          0.867   0.7         0.868   0.6                                  1.00       1.00

 Additional information
- timana(1)                         0.000   0.0         0.000   0.0              8                   1.01       1.01
- total timab                       1.342   1.0         1.342   1.0         598694                   1.00       1.00
- fourwf                           24.368  18.3        24.422  18.3          15804                   1.00       1.00
- mklocl(2)                         0.070   0.1         0.070   0.1              8                   1.00       1.00
- nonlop(forstr)                    1.058   0.8         1.059   0.8            216                   1.00       1.00
- nonlop(total)                    26.359  19.8        26.399  19.7          14076                   1.00       1.00
- xc:fourdp                         1.190   0.9         1.192   0.9            640                   1.00       1.00


 Detailed analysis of some time consuming routines 
                                  tcpu    ncalls  tcpu/ncalls    ndata tcpu/ncalls/ndata
                                 (sec)                (msec)              (microsec)
- fourwf%(pot)                  22.762     13860       1.642    349920       0.005
- fourwf%(den)                   1.605      1944       0.826    174960       0.005
- fourdp                         1.912      1008       1.897    174960       0.011
- nonlop(apply)                 25.301     13860       1.825     70803       0.026
- nonlop(forces)                 0.000         0
- nonlop(forstr)                 1.058       216       4.898     70803       0.069
- projbd                        10.363     22176       0.467    220297       0.002
- xc:pot/=fourdp                 1.737        80      21.709    174960       0.124

================================================================================

 Suggested references for the acknowledgment of ABINIT usage.

 The users of ABINIT have little formal obligations with respect to the ABINIT group
 (those specified in the GNU General Public License, http://www.gnu.org/copyleft/gpl.txt).
 However, it is common practice in the scientific literature,
 to acknowledge the efforts of people that have made the research possible.
 In this spirit, please find below suggested citations of work written by ABINIT developers,
 corresponding to implementations inside of ABINIT that you have used in the present run.
 Note also that it will be of great value to readers of publications presenting these results,
 to read papers enabling them to understand the theoretical formalism and details
 of the ABINIT implementation.
 For information on why they are suggested, see also https://docs.abinit.org/theory/acknowledgments.
-
- [1] The Abinit project: Impact, environment and recent developments.
- Computer Phys. Comm. 248, 107042 (2020).
- X.Gonze, B. Amadon, G. Antonius, F.Arnardi, L.Baguet, J.-M.Beuken,
- J.Bieder, F.Bottin, J.Bouchet, E.Bousquet, N.Brouwer, F.Bruneval,
- G.Brunin, T.Cavignac, J.-B. Charraud, Wei Chen, M.Cote, S.Cottenier,
- J.Denier, G.Geneste, Ph.Ghosez, M.Giantomassi, Y.Gillet, O.Gingras,
- D.R.Hamann, G.Hautier, Xu He, N.Helbig, N.Holzwarth, Y.Jia, F.Jollet,
- W.Lafargue-Dit-Hauret, K.Lejaeghere, M.A.L.Marques, A.Martin, C.Martins,
- H.P.C. Miranda, F.Naccarato, K. Persson, G.Petretto, V.Planes, Y.Pouillon,
- S.Prokhorenko, F.Ricci, G.-M.Rignanese, A.H.Romero, M.M.Schmitt, M.Torrent,
- M.J.van Setten, B.Van Troeye, M.J.Verstraete, G.Zerah and J.W.Zwanzig
- Comment: the fifth generic paper describing the ABINIT project.
- Note that a version of this paper, that is not formatted for Computer Phys. Comm. 
- is available at https://www.abinit.org/sites/default/files/ABINIT20.pdf .
- The licence allows the authors to put it on the Web.
- DOI and bibtex: see https://docs.abinit.org/theory/bibliography/#gonze2020
-
- [2] Optimized norm-conserving Vanderbilt pseudopotentials.
- D.R. Hamann, Phys. Rev. B 88, 085117 (2013).
- Comment: Some pseudopotential generated using the ONCVPSP code were used.
- DOI and bibtex: see https://docs.abinit.org/theory/bibliography/#hamann2013
-
- [3] ABINIT: Overview, and focus on selected capabilities
- J. Chem. Phys. 152, 124102 (2020).
- A. Romero, D.C. Allan, B. Amadon, G. Antonius, T. Applencourt, L.Baguet,
- J.Bieder, F.Bottin, J.Bouchet, E.Bousquet, F.Bruneval,
- G.Brunin, D.Caliste, M.Cote,
- J.Denier, C. Dreyer, Ph.Ghosez, M.Giantomassi, Y.Gillet, O.Gingras,
- D.R.Hamann, G.Hautier, F.Jollet, G. Jomard,
- A.Martin, 
- H.P.C. Miranda, F.Naccarato, G.Petretto, N.A. Pike, V.Planes,
- S.Prokhorenko, T. Rangel, F.Ricci, G.-M.Rignanese, M.Royo, M.Stengel, M.Torrent,
- M.J.van Setten, B.Van Troeye, M.J.Verstraete, J.Wiktor, J.W.Zwanziger, and X.Gonze.
- Comment: a global overview of ABINIT, with focus on selected capabilities .
- Note that a version of this paper, that is not formatted for J. Chem. Phys 
- is available at https://www.abinit.org/sites/default/files/ABINIT20_JPC.pdf .
- The licence allows the authors to put it on the Web.
- DOI and bibtex: see https://docs.abinit.org/theory/bibliography/#romero2020
-
- [4] Recent developments in the ABINIT software package.
- Computer Phys. Comm. 205, 106 (2016).
- X.Gonze, F.Jollet, F.Abreu Araujo, D.Adams, B.Amadon, T.Applencourt,
- C.Audouze, J.-M.Beuken, J.Bieder, A.Bokhanchuk, E.Bousquet, F.Bruneval
- D.Caliste, M.Cote, F.Dahm, F.Da Pieve, M.Delaveau, M.Di Gennaro,
- B.Dorado, C.Espejo, G.Geneste, L.Genovese, A.Gerossier, M.Giantomassi,
- Y.Gillet, D.R.Hamann, L.He, G.Jomard, J.Laflamme Janssen, S.Le Roux,
- A.Levitt, A.Lherbier, F.Liu, I.Lukacevic, A.Martin, C.Martins,
- M.J.T.Oliveira, S.Ponce, Y.Pouillon, T.Rangel, G.-M.Rignanese,
- A.H.Romero, B.Rousseau, O.Rubel, A.A.Shukri, M.Stankovski, M.Torrent,
- M.J.Van Setten, B.Van Troeye, M.J.Verstraete, D.Waroquier, J.Wiktor,
- B.Xu, A.Zhou, J.W.Zwanziger.
- Comment: the fourth generic paper describing the ABINIT project.
- Note that a version of this paper, that is not formatted for Computer Phys. Comm. 
- is available at https://www.abinit.org/sites/default/files/ABINIT16.pdf .
- The licence allows the authors to put it on the Web.
- DOI and bibtex: see https://docs.abinit.org/theory/bibliography/#gonze2016
-
- And optionally:
-
- [5] ABINIT: First-principles approach of materials and nanosystem properties.
- Computer Phys. Comm. 180, 2582-2615 (2009).
- X. Gonze, B. Amadon, P.-M. Anglade, J.-M. Beuken, F. Bottin, P. Boulanger, F. Bruneval,
- D. Caliste, R. Caracas, M. Cote, T. Deutsch, L. Genovese, Ph. Ghosez, M. Giantomassi
- S. Goedecker, D.R. Hamann, P. Hermet, F. Jollet, G. Jomard, S. Leroux, M. Mancini, S. Mazevet,
- M.J.T. Oliveira, G. Onida, Y. Pouillon, T. Rangel, G.-M. Rignanese, D. Sangalli, R. Shaltaf,
- M. Torrent, M.J. Verstraete, G. Zerah, J.W. Zwanziger
- Comment: the third generic paper describing the ABINIT project.
- Note that a version of this paper, that is not formatted for Computer Phys. Comm. 
- is available at https://www.abinit.org/sites/default/files/ABINIT_CPC_v10.pdf .
- The licence allows the authors to put it on the Web.
- DOI and bibtex: see https://docs.abinit.org/theory/bibliography/#gonze2009
-
- Proc.   0 individual time (sec): cpu=         16.4  wall=         16.8
 
================================================================================
 
 Calculation completed.
.Delivered   0 WARNINGs and   0 COMMENTs to log file.
+Overall time at end (sec) : cpu=        133.6  wall=        134.1
