/*--------------------------------*- C++ -*----------------------------------*\
| =========                 |                                                 |
| \\      /  F ield         | OpenFOAM: The Open Source CFD Toolbox           |
|  \\    /   O peration     | Version:  v2012                                 |
|   \\  /    A nd           | Website:  www.openfoam.com                      |
|    \\/     M anipulation  |                                                 |
\*---------------------------------------------------------------------------*/
FoamFile
{
    version     2.0;
    format      ascii;
    class       volScalarField;
    location    "0.05";
    object      p;
}
// * * * * * * * * * * * * * * * * * * * * * * * * * * * * * * * * * * * * * //

dimensions      [0 2 -2 0 0 0 0];


internalField   nonuniform List<scalar> 
2500
(
8.7554e-08
-0.000522715
-0.00207446
-0.00438498
-0.00708624
-0.00988333
-0.012548
-0.0149032
-0.0168155
-0.0181881
-0.0189539
-0.0190697
-0.0185128
-0.0172771
-0.0153708
-0.0128146
-0.00963922
-0.00588459
-0.00159819
0.00316579
0.00834742
0.0138816
0.0196989
0.0257263
0.0318878
0.0381051
0.0442986
0.0503878
0.0562923
0.0619331
0.0672331
0.0721187
0.0765208
0.0803762
0.0836295
0.0862344
0.0881557
0.0893709
0.0898723
0.0896694
0.0887915
0.0872904
0.0852444
0.0827623
0.079989
0.0771114
0.0743649
0.0720445
0.0705188
0.0700345
0.000529229
1.03984e-05
-0.00126859
-0.0031084
-0.00524549
-0.00746472
-0.00958574
-0.0114602
-0.0129711
-0.0140296
-0.014571
-0.0145522
-0.0139477
-0.0127476
-0.0109553
-0.00858584
-0.00566406
-0.00222361
0.00169443
0.00604233
0.0107667
0.0158093
0.0211073
0.0265946
0.0322026
0.0378601
0.0434948
0.049034
0.054405
0.0595366
0.06436
0.0688094
0.0728238
0.076348
0.0793342
0.0817436
0.0835476
0.0847297
0.0852869
0.0852323
0.0845966
0.0834307
0.081808
0.079827
0.0776142
0.0753254
0.0731464
0.0712943
0.0700309
0.0695506
0.00209359
0.00130105
1.19461e-05
-0.00164792
-0.00351315
-0.0054197
-0.00722347
-0.00880284
-0.0100583
-0.0109115
-0.0113042
-0.0111957
-0.0105613
-0.00938986
-0.00768267
-0.00545149
-0.00271745
0.000490044
0.00413444
0.00817283
0.0125567
0.0172329
0.0221438
0.0272289
0.0324248
0.0376661
0.0428861
0.0480178
0.0529946
0.0577512
0.0622243
0.0663541
0.0700853
0.0733682
0.0761603
0.0784274
0.0801452
0.0813002
0.0818918
0.0819337
0.0814559
0.0805053
0.0791483
0.0774717
0.0755832
0.0736119
0.0717069
0.0700344
0.0687649
0.0680284
0.00444494
0.003167
0.00166068
-2.83969e-05
-0.00182846
-0.00361233
-0.00526384
-0.00668521
-0.00779436
-0.00852524
-0.00882747
-0.00866535
-0.00801679
-0.00687175
-0.00523095
-0.00310486
-0.000512519
0.00251941
0.00595754
0.00976239
0.0138892
0.0182886
0.0229074
0.027689
0.0325745
0.0375028
0.0424117
0.0472386
0.0519215
0.0563992
0.0606129
0.0645069
0.0680298
0.0711357
0.0737853
0.0759473
0.0775994
0.0787296
0.0793376
0.0794358
0.0790512
0.0782256
0.0770168
0.0754993
0.0737635
0.0719149
0.0700754
0.0683759
0.0668978
0.0656929
0.00724492
0.00536897
0.00353311
0.00170138
-0.000146229
-0.00191266
-0.00350495
-0.00484704
-0.00587381
-0.00653153
-0.00677869
-0.00658569
-0.0059342
-0.00481626
-0.00323339
-0.00119564
0.00127912
0.00416608
0.0074341
0.0110464
0.0149614
0.0191329
0.0235112
0.0280434
0.0326741
0.037346
0.0420007
0.0465794
0.0510237
0.0552758
0.0592803
0.0629848
0.0663408
0.069305
0.0718405
0.0739174
0.0755145
0.07662
0.0772326
0.0773625
0.0770327
0.0762787
0.0751497
0.0737079
0.0720273
0.0701925
0.068303
0.0664613
0.0646606
0.062874
0.0102378
0.00771717
0.00548472
0.00343148
0.00145305
-0.000376873
-0.00198416
-0.00331166
-0.00430974
-0.00493649
-0.00515923
-0.00495504
-0.00431009
-0.00321926
-0.00168563
0.000280231
0.00266087
0.00543251
0.00856566
0.0120255
0.0157728
0.0197641
0.0239525
0.0282881
0.0327185
0.0371894
0.0416457
0.0460314
0.0502909
0.0543692
0.0582135
0.0617735
0.0650029
0.0678601
0.0703092
0.0723211
0.0738746
0.074957
0.0755652
0.0757063
0.0753986
0.0746713
0.0735648
0.0721301
0.0704265
0.0685206
0.0664945
0.0644287
0.0622356
0.0598178
0.0132321
0.0100558
0.00738849
0.00505854
0.00288719
0.000930958
-0.000750682
-0.00211666
-0.00313074
-0.00376192
-0.00398618
-0.00378709
-0.00315572
-0.00209039
-0.000596344
0.00131476
0.00362515
0.00631141
0.00934498
0.0126924
0.0163163
0.0201752
0.0242243
0.0284161
0.0327006
0.0370261
0.0413395
0.0455873
0.0497159
0.0536724
0.0574053
0.0608661
0.0640097
0.066795
0.0691864
0.0711547
0.0726777
0.0737411
0.074339
0.0744752
0.0741628
0.0734247
0.0722932
0.0708092
0.0690195
0.0669758
0.0647471
0.0623989
0.0597718
0.0567084
0.0160806
0.0122552
0.00913368
0.00649142
0.00408397
0.00195575
0.000155505
-0.00128914
-0.00235362
-0.00301649
-0.00326184
-0.00307958
-0.00246572
-0.00142229
4.29081e-05
0.00191662
0.00418025
0.00681018
0.00977816
0.0130517
0.0165945
0.0203666
0.0243248
0.0284233
0.0326139
0.0368467
0.0410705
0.0452332
0.0492825
0.0531667
0.0568355
0.060241
0.0633383
0.0660864
0.0684491
0.0703961
0.0719035
0.0729547
0.0735409
0.0736615
0.0733248
0.0725477
0.0713549
0.0697785
0.0678548
0.0656239
0.0631456
0.0604753
0.0573911
0.0536848
0.0186699
0.0142075
0.0106235
0.00764658
0.00497379
0.00264138
0.000690368
-0.000862391
-0.00200244
-0.00271684
-0.00299683
-0.00283844
-0.00224261
-0.00121509
0.000233559
0.00208807
0.00432855
0.00693078
0.00986647
0.0131035
0.0166061
0.0203354
0.0242493
0.0283031
0.03245
0.0366413
0.0408267
0.0449552
0.0489752
0.0528356
0.0564864
0.0598796
0.06297
0.0657158
0.0680796
0.0700292
0.0715385
0.0725879
0.073165
0.0732652
0.0728917
0.0720556
0.0707751
0.0690745
0.0669816
0.0645273
0.0617659
0.0587467
0.0551927
0.0508513
0.0209097
0.0158226
0.011773
0.00844715
0.00548926
0.00293035
0.000805978
-0.000875811
-0.00210893
-0.00288796
-0.00321069
-0.00307882
-0.00249794
-0.00147758
-3.1299e-05
0.0018234
0.00406509
0.00666859
0.00960516
0.0128426
0.0163454
0.020075
0.0239901
0.0280468
0.032199
0.0363986
0.0405959
0.0447402
0.0487802
0.0526647
0.0563434
0.0597677
0.0628912
0.0656708
0.068067
0.0700454
0.0715769
0.0726385
0.0732141
0.0732946
0.0728784
0.0719709
0.0705844
0.068737
0.0664493
0.0637454
0.0606766
0.0572894
0.0532572
0.0482879
0.0227256
0.0170227
0.0125057
0.00882184
0.0055656
0.00276494
0.000452017
-0.0013725
-0.0027097
-0.00356069
-0.00392919
-0.00382214
-0.00324962
-0.00222491
-0.000764646
0.00111126
0.00337962
0.00601403
0.00898494
0.0122597
0.0158027
0.0195754
0.0235368
0.0276433
0.0318491
0.0361062
0.0403651
0.0445749
0.0486841
0.0526407
0.0563938
0.0598933
0.0630913
0.0659425
0.0684048
0.0704409
0.0720184
0.0731105
0.0736969
0.0737639
0.073305
0.0723205
0.0708172
0.0688077
0.0663072
0.0633345
0.0599401
0.0561705
0.0516525
0.0460576
0.0240531
0.0177383
0.0127518
0.00870323
0.00513968
0.00208735
-0.0004237
-0.0023989
-0.00384563
-0.00477073
-0.0051834
-0.00509542
-0.00452119
-0.00347776
-0.00198486
-6.48945e-05
0.002257
0.00495295
0.0079923
0.0113417
0.014965
0.0188235
0.0228761
0.0270791
0.0313866
0.0357505
0.0401207
0.0444459
0.0486737
0.0527513
0.0566262
0.0602466
0.0635622
0.0665249
0.0690898
0.071216
0.0728672
0.0740125
0.0746269
0.0746921
0.0741965
0.0731354
0.0715107
0.0693303
0.0666048
0.0633494
0.0596154
0.0554507
0.050438
0.0442132
0.0248325
0.0179047
0.0124451
0.0080262
0.00414899
0.000838873
-0.00187543
-0.0040046
-0.00556155
-0.00655842
-0.00700939
-0.0069309
-0.00634158
-0.00526216
-0.00371549
-0.00172657
0.000677365
0.00346673
0.00660956
0.0100715
0.0138157
0.0178031
0.021992
0.0263385
0.030796
0.035316
0.0398477
0.0443388
0.0487358
0.0529845
0.0570303
0.060819
0.0642976
0.0674148
0.0701221
0.0723745
0.0741315
0.0753574
0.0760222
0.0761026
0.0755819
0.0744505
0.0727055
0.0703506
0.0673929
0.0638448
0.0597594
0.0551875
0.0496682
0.0428022
0.0250068
0.0174592
0.0115205
0.0067261
0.00253059
-0.00104075
-0.00395996
-0.00624248
-0.00790628
-0.00896846
-0.00944796
-0.00936578
-0.00874469
-0.00760906
-0.0059849
-0.00389991
-0.00138361
0.00153253
0.00481507
0.00842846
0.0123351
0.016495
0.0208659
0.0254032
0.0300597
0.0347858
0.0395299
0.0442385
0.0488567
0.0533282
0.0575958
0.0616029
0.0652928
0.0686108
0.0715041
0.0739233
0.0758228
0.0771616
0.0779046
0.0780228
0.0774943
0.0763042
0.0744453
0.0719174
0.0687243
0.0648764
0.0604293
0.0554377
0.0493963
0.0418703
0.0245179
0.0163387
0.00991272
0.00473721
0.000219804
-0.00361416
-0.00673709
-0.00916892
-0.0109325
-0.0120498
-0.0125445
-0.0124419
-0.0117691
-0.010554
-0.00882589
-0.00661538
-0.0039544
-0.0008764
0.00258354
0.00638859
0.0105
0.0148771
0.0194764
0.0242526
0.0291576
0.0341409
0.0391496
0.0441288
0.0490217
0.0537695
0.0583126
0.0625907
0.0665438
0.0701127
0.07324
0.0758711
0.077955
0.0794448
0.0802993
0.0804838
0.0799704
0.0787391
0.0767779
0.074083
0.0706549
0.0665023
0.061684
0.0562591
0.0496765
0.0414643
0.0233056
0.0144781
0.00755411
0.0019914
-0.00285089
-0.0069472
-0.0102702
-0.0128442
-0.0146973
-0.015856
-0.0163487
-0.0162056
-0.0154576
-0.0141366
-0.0122754
-0.0099074
-0.00706721
-0.00379035
-0.000113629
0.00392469
0.00828466
0.0129243
0.0177995
0.0228637
0.0280679
0.0333605
0.0386874
0.0439918
0.0492148
0.0542951
0.0591698
0.0637752
0.0680469
0.0719212
0.0753354
0.078229
0.0805448
0.0822294
0.0832351
0.0835203
0.0830512
0.081802
0.0797556
0.0769041
0.0732449
0.0687848
0.0635863
0.0577133
0.0505665
0.0416352
0.0213051
0.0118084
0.00437333
-0.00158329
-0.00675286
-0.0111097
-0.0146267
-0.017333
-0.0192618
-0.0204446
-0.0209148
-0.0207071
-0.0198571
-0.0184006
-0.016374
-0.0138139
-0.0107575
-0.00724267
-0.00330795
0.00100679
0.00566025
0.0106093
0.0158088
0.0212112
0.0267665
0.0324221
0.0381221
0.0438082
0.0494189
0.0548902
0.0601559
0.0651484
0.0697987
0.0740377
0.0777969
0.0810095
0.083611
0.0855409
0.086744
0.0871716
0.0867827
0.085545
0.0834361
0.0804432
0.0765602
0.0717919
0.0662048
0.0598677
0.0521303
0.04244
0.0184462
0.00825531
0.000294053
-0.00606375
-0.0115624
-0.0161763
-0.019879
-0.0227047
-0.024692
-0.0258778
-0.0263009
-0.0260009
-0.0250183
-0.0233931
-0.0211656
-0.0183758
-0.0150637
-0.0112693
-0.00703341
-0.00239743
0.00259593
0.00790243
0.0134759
0.019268
0.0252277
0.031301
0.0374309
0.0435569
0.0496153
0.0555391
0.0612587
0.0667021
0.0717954
0.0764638
0.0806322
0.0842264
0.0871743
0.0894073
0.0908618
0.0914808
0.0912153
0.0900258
0.087883
0.084769
0.0806736
0.0755989
0.0696157
0.0627977
0.0544396
0.0439442
0.0146517
0.00373807
-0.0047664
-0.011533
-0.0173618
-0.0222278
-0.0261052
-0.029034
-0.0310587
-0.0322224
-0.0325694
-0.0321452
-0.0309952
-0.0291644
-0.026697
-0.0236366
-0.0200261
-0.0159083
-0.0113258
-0.00632198
-0.000940716
0.00477267
0.0107712
0.0170056
0.0234241
0.0299716
0.0365896
0.0432158
0.0497843
0.0562251
0.0624649
0.0684273
0.074033
0.0792009
0.0838488
0.0878945
0.0912572
0.0938591
0.0956273
0.0964952
0.0964047
0.0953074
0.0931665
0.0899577
0.0856656
0.0802896
0.0739039
0.0665877
0.0575757
0.0462229
0.00983665
-0.00183177
-0.0108982
-0.0180814
-0.0242404
-0.0293512
-0.0333893
-0.0364011
-0.038438
-0.0395497
-0.0397871
-0.0392019
-0.0378452
-0.0357673
-0.0330168
-0.0296411
-0.0256866
-0.0211986
-0.016222
-0.0108017
-0.00498287
0.00118831
0.00766416
0.0143949
0.0213278
0.028407
0.0355729
0.0427616
0.0499048
0.0569299
0.06376
0.0703138
0.0765065
0.0822502
0.0874547
0.0920293
0.0958835
0.0989292
0.101083
0.102266
0.102412
0.10146
0.0993642
0.0960937
0.0916265
0.085958
0.0791657
0.0713334
0.0616316
0.0493635
0.00390698
-0.00855171
-0.0182004
-0.0258078
-0.0322958
-0.0376415
-0.0418227
-0.0448929
-0.0469116
-0.0479359
-0.0480245
-0.047236
-0.045628
-0.0432564
-0.040175
-0.0364354
-0.0320876
-0.0271798
-0.0217588
-0.0158713
-0.00956343
-0.00288209
0.00412458
0.0114064
0.0189104
0.0265801
0.034355
0.04217
0.049955
0.0576348
0.0651286
0.0723506
0.0792101
0.085612
0.0914577
0.0966469
0.101078
0.104653
0.107273
0.108851
0.109303
0.108559
0.106563
0.103272
0.098658
0.0927105
0.0855099
0.0771444
0.0667144
0.0534671
-0.00324134
-0.0165294
-0.0267822
-0.0348212
-0.0416349
-0.0472024
-0.0515043
-0.054603
-0.0565669
-0.0574622
-0.0573562
-0.0563154
-0.0544051
-0.0516874
-0.048222
-0.0440653
-0.0392709
-0.0338899
-0.0279716
-0.0215638
-0.0147137
-0.00746849
0.000123514
0.0080122
0.0161446
0.0244643
0.0329105
0.0414172
0.0499129
0.05832
0.0665545
0.0745259
0.0821373
0.0892863
0.0958654
0.101764
0.106869
0.111067
0.114249
0.116309
0.117152
0.116692
0.114858
0.111599
0.106875
0.100668
0.0930608
0.0841461
0.0729471
0.0586512
-0.0117237
-0.0258843
-0.0367646
-0.0452418
-0.0523752
-0.0581472
-0.0625421
-0.0656326
-0.0674978
-0.0682145
-0.0678599
-0.0665102
-0.0642389
-0.061116
-0.0572074
-0.0525747
-0.0472757
-0.0413646
-0.0348928
-0.0279093
-0.0204618
-0.0125978
-0.00436512
0.00418668
0.0130054
0.022035
0.0312153
0.04048
0.0497568
0.0589663
0.0680213
0.0768271
0.0852809
0.0932725
0.100685
0.107397
0.113281
0.118212
0.122061
0.124708
0.126039
0.125951
0.124358
0.121194
0.116405
0.109966
0.10196
0.0924818
0.0804716
0.0650517
-0.0216682
-0.0367492
-0.0482822
-0.057203
-0.064647
-0.0706007
-0.0750538
-0.078091
-0.0798043
-0.080283
-0.0796163
-0.0778913
-0.0751919
-0.0715964
-0.067178
-0.0620043
-0.0561374
-0.0496348
-0.0425497
-0.0349324
-0.0268308
-0.0182919
-0.00936271
-9.13757e-05
0.00947129
0.0192708
0.029248
0.0393373
0.0494664
0.0595546
0.0695126
0.0792415
0.088633
0.0975694
0.105924
0.113563
0.120345
0.126128
0.130767
0.134119
0.136052
0.136441
0.135183
0.13219
0.127396
0.120762
0.11237
0.102316
0.0894511
0.0728257
-0.0332176
-0.0492727
-0.0614855
-0.0708538
-0.0785949
-0.0847007
-0.0891681
-0.0920964
-0.0935931
-0.0937625
-0.092708
-0.0905302
-0.0873245
-0.0831793
-0.0781761
-0.0723889
-0.0658846
-0.058724
-0.0509623
-0.0426505
-0.0338364
-0.0245657
-0.0148839
-0.0048369
0.00552683
0.0161553
0.0269913
0.0379714
0.0490238
0.060068
0.0710129
0.0817568
0.092186
0.102175
0.111589
0.120279
0.12809
0.13486
0.140425
0.144619
0.147286
0.148278
0.147465
0.144739
0.140013
0.133232
0.124475
0.11384
0.100074
0.0821552
-0.0465313
-0.0636218
-0.076544
-0.0863616
-0.0943805
-0.1006
-0.105026
-0.107776
-0.108977
-0.108751
-0.107219
-0.104497
-0.100694
-0.0959102
-0.0902369
-0.083755
-0.0765368
-0.0686463
-0.0601405
-0.0510708
-0.041484
-0.0314242
-0.0209339
-0.0100562
0.00116422
0.0126789
0.0244342
0.0363694
0.0484152
0.0604921
0.0725089
0.0843616
0.0959322
0.107089
0.117685
0.127561
0.136544
0.144453
0.151099
0.156292
0.159847
0.161587
0.161353
0.15901
0.154444
0.147581
0.138491
0.127271
0.11256
0.0932505
-0.0617891
-0.0799858
-0.0936502
-0.103916
-0.112185
-0.118468
-0.122783
-0.125269
-0.126077
-0.12535
-0.123232
-0.119857
-0.11535
-0.109826
-0.103385
-0.0961176
-0.0881009
-0.0794025
-0.0700809
-0.0601871
-0.0497664
-0.0388598
-0.0275063
-0.0157444
-0.00361402
0.00884148
0.0215733
0.0345254
0.0476323
0.0608171
0.07399
0.0870462
0.0998648
0.112308
0.124219
0.135425
0.145738
0.154952
0.162855
0.169227
0.173849
0.17651
0.177015
0.175194
0.170904
0.16404
0.154663
0.142865
0.12716
0.106356
-0.0791947
-0.0985812
-0.113024
-0.123733
-0.132216
-0.138495
-0.142609
-0.144723
-0.145017
-0.143662
-0.140828
-0.13667
-0.131335
-0.124951
-0.117632
-0.109476
-0.100568
-0.090977
-0.0807633
-0.0699766
-0.0586596
-0.0468492
-0.0345794
-0.0218826
-0.00879248
0.00465436
0.0184158
0.0324423
0.0466739
0.0610387
0.0754498
0.0898037
0.103978
0.11783
0.131195
0.143887
0.1557
0.166405
0.175762
0.183517
0.189413
0.193198
0.194634
0.193509
0.189636
0.182877
0.173276
0.160914
0.144169
0.121754
-0.0989815
-0.119658
-0.134921
-0.146061
-0.154706
-0.160896
-0.164693
-0.166299
-0.165929
-0.16379
-0.160081
-0.154987
-0.148675
-0.141293
-0.132969
-0.123811
-0.113908
-0.103333
-0.0921465
-0.0803959
-0.0681199
-0.05535
-0.0421134
-0.028435
-0.0143402
0.000142994
0.0149813
0.0301335
0.045548
0.0611595
0.076887
0.0926304
0.108268
0.123654
0.138618
0.15296
0.166457
0.178858
0.189889
0.199261
0.206672
0.211821
0.214418
0.214197
0.21092
0.204402
0.194661
0.181763
0.163932
0.139776
-0.12142
-0.143508
-0.159639
-0.17119
-0.179925
-0.185913
-0.189245
-0.19017
-0.188949
-0.185833
-0.181057
-0.174842
-0.16738
-0.158841
-0.149368
-0.139077
-0.128066
-0.116409
-0.104164
-0.0913772
-0.0780801
-0.0642974
-0.0500476
-0.0353463
-0.0202082
-0.00465071
0.0113039
0.0276256
0.044273
0.0611911
0.0783067
0.0955264
0.112732
0.129778
0.146488
0.162654
0.178035
0.192354
0.205307
0.216561
0.225766
0.232561
0.236594
0.237533
0.235074
0.228972
0.219206
0.205817
0.186853
0.16081
-0.146828
-0.170479
-0.18753
-0.199459
-0.208189
-0.213822
-0.216497
-0.216521
-0.214214
-0.209882
-0.203808
-0.19625
-0.187435
-0.177554
-0.166766
-0.1552
-0.142956
-0.130111
-0.116721
-0.102824
-0.0884459
-0.073601
-0.0582974
-0.0425387
-0.026327
-0.00966648
0.00743427
0.0249588
0.0428795
0.0611538
0.0797207
0.0984961
0.117369
0.136198
0.154805
0.172975
0.19045
0.206932
0.222081
0.235519
0.246839
0.255614
0.261415
0.263829
0.262466
0.257003
0.247365
0.233552
0.213412
0.185311
-0.175587
-0.200987
-0.219019
-0.231274
-0.239862
-0.244939
-0.246705
-0.245547
-0.24186
-0.236018
-0.228363
-0.2192
-0.208791
-0.197355
-0.185068
-0.172067
-0.158458
-0.144314
-0.129688
-0.114609
-0.0990929
-0.0831425
-0.0667521
-0.0499107
-0.0326055
-0.0148244
0.00344023
0.0221887
0.0414101
0.0610783
0.0811475
0.101548
0.12218
0.142909
0.163563
0.18392
0.203713
0.222621
0.240269
0.256232
0.27004
0.281189
0.289158
0.293432
0.293515
0.28898
0.279673
0.265536
0.244179
0.213824
-0.208156
-0.235542
-0.254623
-0.267122
-0.275379
-0.279628
-0.280155
-0.277452
-0.272015
-0.2643
-0.254722
-0.243642
-0.231362
-0.218128
-0.204133
-0.189524
-0.174406
-0.158849
-0.142897
-0.126568
-0.109865
-0.0927737
-0.0752736
-0.057336
-0.0389299
-0.0200245
-0.000592748
0.0193856
0.0399198
0.0610038
0.0826116
0.104692
0.127162
0.149902
0.172746
0.195477
0.217819
0.239435
0.259917
0.27879
0.295516
0.309503
0.320122
0.326733
0.328705
0.325472
0.316771
0.302455
0.279847
0.247001
-0.245108
-0.27478
-0.294981
-0.307595
-0.315255
-0.318306
-0.317159
-0.312447
-0.304791
-0.294758
-0.282845
-0.269478
-0.255005
-0.239699
-0.223768
-0.207364
-0.190589
-0.173505
-0.156141
-0.138502
-0.12057
-0.102316
-0.0836963
-0.0646634
-0.0451648
-0.0251478
-0.00456282
0.0166335
0.0384742
0.0609774
0.0841416
0.107939
0.132311
0.157156
0.182326
0.207613
0.232744
0.257366
0.281046
0.303262
0.323402
0.340775
0.354628
0.364169
0.368591
0.367149
0.359425
0.345139
0.321257
0.285637
-0.287162
-0.319503
-0.340894
-0.353422
-0.360105
-0.361454
-0.358058
-0.350735
-0.340274
-0.327372
-0.312631
-0.296547
-0.279513
-0.261831
-0.243718
-0.225325
-0.206744
-0.188022
-0.16917
-0.150171
-0.130986
-0.11156
-0.0918291
-0.0717197
-0.0511554
-0.0300588
-0.00835456
0.0140271
0.0371465
0.0610502
0.0857661
0.111297
0.137612
0.164639
0.192256
0.220274
0.24843
0.276372
0.303645
0.329684
0.353807
0.375215
0.39301
0.406216
0.413809
0.414803
0.408563
0.39461
0.369455
0.330709
-0.335248
-0.370749
-0.393382
-0.405512
-0.410672
-0.409624
-0.40321
-0.392501
-0.378497
-0.362059
-0.343903
-0.324603
-0.304598
-0.284209
-0.263656
-0.243078
-0.222549
-0.202092
-0.181692
-0.161302
-0.140856
-0.120273
-0.0994587
-0.0783131
-0.0567321
-0.0346103
-0.0118438
0.0116666
0.0360122
0.0612723
0.087509
0.114761
0.143035
0.172297
0.20246
0.233367
0.264781
0.296361
0.327648
0.358042
0.386796
0.413002
0.435597
0.453389
0.465081
0.469369
0.465313
0.452138
0.425751
0.383444
-0.390589
-0.42988
-0.453766
-0.465002
-0.467844
-0.463438
-0.452982
-0.437887
-0.419419
-0.398633
-0.376376
-0.353297
-0.329872
-0.306429
-0.283176
-0.260227
-0.237625
-0.215357
-0.193371
-0.171586
-0.149901
-0.128199
-0.106356
-0.0842406
-0.0617172
-0.0386503
-0.0149047
0.00965101
0.0351425
0.0616854
0.0893815
0.118312
0.148528
0.180045
0.212822
0.246752
0.281639
0.317175
0.352913
0.388243
0.422363
0.454258
0.482694
0.506227
0.523219
0.531954
0.531063
0.519327
0.491828
0.445409
-0.454836
-0.498728
-0.523775
-0.533326
-0.532687
-0.52358
-0.507715
-0.486946
-0.462873
-0.436773
-0.409626
-0.382145
-0.354825
-0.327979
-0.301782
-0.276302
-0.251532
-0.227412
-0.20384
-0.180691
-0.15782
-0.135072
-0.112287
-0.0892968
-0.0659348
-0.0420316
-0.0174191
0.00806891
0.0345948
0.0623144
0.0913734
0.121901
0.154004
0.187754
0.223174
0.260223
0.298768
0.338559
0.379193
0.420077
0.460381
0.499004
0.534537
0.565256
0.589115
0.603861
0.607527
0.59823
0.56988
0.518655
-0.530281
-0.579801
-0.605708
-0.612302
-0.606457
-0.590772
-0.56767
-0.539585
-0.508513
-0.475966
-0.443045
-0.410501
-0.378809
-0.348234
-0.318885
-0.29076
-0.26378
-0.237816
-0.212706
-0.188268
-0.164307
-0.140626
-0.11702
-0.0932862
-0.0692216
-0.0446229
-0.0192873
0.00698748
0.0344025
0.0631563
0.0934422
0.125444
0.159329
0.19524
0.233278
0.273488
0.315827
0.360136
0.406095
0.453171
0.500554
0.547093
0.591228
0.630941
0.66371
0.686603
0.696828
0.691512
0.662839
0.60594
-0.620203
-0.676617
-0.70265
-0.704219
-0.690598
-0.665704
-0.63294
-0.595465
-0.555718
-0.515437
-0.475792
-0.437517
-0.401012
-0.366441
-0.333804
-0.302993
-0.273831
-0.2461
-0.219563
-0.193968
-0.169067
-0.144608
-0.120345
-0.0960364
-0.0714412
-0.0463218
-0.0204407
0.00644088
0.0345633
0.0641691
0.0955021
0.128805
0.164313
0.20225
0.242812
0.286151
0.332345
0.381368
0.433033
0.486928
0.542332
0.598115
0.652627
0.703578
0.747924
0.781898
0.801595
0.802676
0.774722
0.711099
-0.729472
-0.794223
-0.818781
-0.811932
-0.786683
-0.748902
-0.70329
-0.653856
-0.603483
-0.554058
-0.506729
-0.462112
-0.420445
-0.381719
-0.34577
-0.31234
-0.281122
-0.25179
-0.224012
-0.197463
-0.171826
-0.146799
-0.122089
-0.097414
-0.0724977
-0.0470682
-0.0208542
0.0064182
0.0350278
0.065261
0.0974128
0.131787
0.168694
0.208448
0.251352
0.29769
0.347696
0.401519
0.459171
0.520443
0.584807
0.651268
0.7182
0.783133
0.842511
0.8916
0.925046
0.936374
0.911166
0.839686
-0.865635
-0.940018
-0.959763
-0.938893
-0.896248
-0.840483
-0.777907
-0.713427
-0.650252
-0.590248
-0.534364
-0.482942
-0.435936
-0.393069
-0.353945
-0.318107
-0.285087
-0.254427
-0.225688
-0.19846
-0.172361
-0.14703
-0.12213
-0.0973397
-0.0723497
-0.0468564
-0.0205575
0.00685327
0.0356904
0.0662818
0.0989724
0.134128
0.172135
0.213404
0.258362
0.307441
0.361066
0.419614
0.483366
0.552425
0.626589
0.705177
0.786787
0.868969
0.947793
1.01752
1.07102
1.09881
1.08029
1.00012
-1.04098
-1.12508
-1.13321
-1.08905
-1.02042
-0.939721
-0.855027
-0.771959
-0.693733
-0.621858
-0.556794
-0.498387
-0.44614
-0.399399
-0.357454
-0.319604
-0.285188
-0.253597
-0.22428
-0.196736
-0.170513
-0.145199
-0.120414
-0.0958012
-0.0710219
-0.0457454
-0.0196433
0.00761798
0.0363839
0.0670192
0.0999146
0.135494
0.174221
0.216602
0.263194
0.314597
0.371453
0.434417
0.504122
0.5811
0.665657
0.75767
0.856282
0.95944
1.0632
1.16103
1.24385
1.29819
1.29406
1.20589
-1.27674
-1.36624
-1.34898
-1.26629
-1.15911
-1.04429
-0.93134
-0.825955
-0.73067
-0.646062
-0.571677
-0.506563
-0.44958
-0.399568
-0.355435
-0.31619
-0.280958
-0.248973
-0.219566
-0.192151
-0.166212
-0.14129
-0.116969
-0.0928635
-0.0686118
-0.0438634
-0.0182704
0.00852104
0.0368803
0.0672015
0.0999137
0.135492
0.174468
0.217442
0.265099
0.318215
0.377664
0.444425
0.519553
0.60414
0.699207
0.805508
0.923195
1.05124
1.18644
1.32216
1.44777
1.54502
1.57043
1.47997
-1.61158
-1.68918
-1.6187
-1.47271
-1.30922
-1.14885
-1.00105
-0.870075
-0.756547
-0.659238
-0.576206
-0.505353
-0.444691
-0.392445
-0.347084
-0.307311
-0.272032
-0.24033
-0.211429
-0.184669
-0.159484
-0.135377
-0.111906
-0.0886689
-0.0652895
-0.0414061
-0.0166606
0.00931243
0.0368963
0.0665045
0.0985929
0.133675
0.172338
0.215264
0.263251
0.31724
0.378344
0.447876
0.527372
0.61859
0.723476
0.844032
0.982025
1.13838
1.31197
1.49774
1.68504
1.85153
1.93642
1.86369
-2.11619
-2.13132
-1.95349
-1.70562
-1.46214
-1.24338
-1.05498
-0.89678
-0.765551
-0.657084
-0.567292
-0.492592
-0.42999
-0.37704
-0.33177
-0.292588
-0.258212
-0.227598
-0.19989
-0.174379
-0.150463
-0.127628
-0.105422
-0.0834351
-0.0612904
-0.0386259
-0.0150836
0.00970207
0.0361169
0.0645801
0.0955599
0.129591
0.167295
0.20941
0.256823
0.310609
0.37209
0.442896
0.525041
0.621009
0.733829
0.867097
1.02488
1.21128
1.42933
1.67871
1.9528
2.2292
2.4307
2.43124
-2.91899
-2.74226
-2.35967
-1.9551
-1.60277
-1.31324
-1.08128
-0.897399
-0.751702
-0.635662
-0.542456
-0.466804
-0.404673
-0.352993
-0.309414
-0.272124
-0.239711
-0.211056
-0.185266
-0.161612
-0.139487
-0.118379
-0.0978424
-0.0774781
-0.0569193
-0.0358161
-0.0138229
0.00941424
0.0342702
0.0611554
0.0905319
0.122933
0.158991
0.199464
0.245283
0.297608
0.357904
0.428043
0.510449
0.608281
0.72568
0.868056
1.04239
1.25736
1.52303
1.84911
2.24043
2.68408
3.10344
3.31454
-4.30894
-3.58094
-2.81328
-2.18527
-1.69857
-1.33322
-1.06256
-0.860778
-0.708228
-0.591068
-0.499599
-0.426992
-0.368403
-0.32035
-0.280282
-0.246302
-0.216967
-0.191164
-0.168015
-0.146814
-0.126982
-0.108034
-0.0895492
-0.0711554
-0.0525105
-0.0332893
-0.0131704
0.00817568
0.0310991
0.0559849
0.0832698
0.113462
0.147168
0.185125
0.228254
0.277716
0.335016
0.402128
0.481701
0.577346
0.694077
0.838963
1.02204
1.25759
1.56595
1.97407
2.5096
3.19072
4.01512
4.80853
-7.04709
-4.67395
-3.14026
-2.23751
-1.63764
-1.22983
-0.951726
-0.756744
-0.615386
-0.509937
-0.429307
-0.366263
-0.315957
-0.275044
-0.241146
-0.212526
-0.187886
-0.166231
-0.146786
-0.128929
-0.112151
-0.0960279
-0.0801933
-0.0643224
-0.048117
-0.0312934
-0.0135715
0.00533687
0.0257383
0.0479707
0.0724181
0.0995291
0.12984
0.164007
0.202852
0.247421
0.299083
0.359658
0.431639
0.518524
0.625368
0.759706
0.933089
1.16391
1.48271
1.93843
2.59759
3.57298
5.19501
7.67883
-11.6822
-5.75923
-2.98921
-1.8731
-1.28467
-0.931323
-0.710662
-0.56417
-0.460682
-0.384254
-0.325982
-0.280418
-0.24402
-0.214372
-0.189758
-0.168913
-0.150886
-0.134938
-0.12049
-0.107071
-0.0942953
-0.0818376
-0.069415
-0.0567754
-0.0436863
-0.0299255
-0.0152725
0.000499603
0.0176325
0.0363925
0.057081
0.0800487
0.105713
0.13458
0.167279
0.204607
0.247591
0.297595
0.356468
0.426806
0.512396
0.619026
0.756082
0.940103
1.20306
1.60644
2.26213
3.47292
6.35878
12.4038
)
;

boundaryField
{
    movingWall
    {
        type            zeroGradient;
    }
    fixedWalls
    {
        type            zeroGradient;
    }
    frontAndBack
    {
        type            empty;
    }
}


// ************************************************************************* //
