/*--------------------------------*- C++ -*----------------------------------*\
| =========                 |                                                 |
| \\      /  F ield         | OpenFOAM: The Open Source CFD Toolbox           |
|  \\    /   O peration     | Version:  v2012                                 |
|   \\  /    A nd           | Website:  www.openfoam.com                      |
|    \\/     M anipulation  |                                                 |
\*---------------------------------------------------------------------------*/
FoamFile
{
    version     2.0;
    format      ascii;
    class       surfaceScalarField;
    location    "0.05";
    object      phi;
}
// * * * * * * * * * * * * * * * * * * * * * * * * * * * * * * * * * * * * * //

dimensions      [0 3 -1 0 0 0 0];
oriented        oriented;


internalField   nonuniform List<scalar> 
4900
(
1.04423e-09
-1.04439e-09
2.0882e-09
-1.04391e-09
2.08179e-09
6.28355e-12
6.61422e-10
1.42044e-09
-2.23461e-09
2.89598e-09
-6.51936e-09
4.28473e-09
-1.20361e-08
5.51671e-09
-1.85967e-08
6.56065e-09
-2.60022e-08
7.40553e-09
-3.40529e-08
8.05069e-09
-4.25541e-08
8.50124e-09
-5.13197e-08
8.76565e-09
-6.01738e-08
8.8541e-09
-6.89518e-08
8.77804e-09
-7.75014e-08
8.54958e-09
-8.56825e-08
8.18112e-09
-9.33677e-08
7.68514e-09
-1.00442e-07
7.07414e-09
-1.06802e-07
6.36061e-09
-1.12359e-07
5.55703e-09
-1.17035e-07
4.67588e-09
-1.20765e-07
3.7296e-09
-1.23496e-07
2.73085e-09
-1.25188e-07
1.6924e-09
-1.25815e-07
6.2726e-10
-1.25364e-07
-4.51148e-10
-1.23835e-07
-1.52903e-09
-1.21243e-07
-2.59221e-09
-1.17617e-07
-3.62593e-09
-1.13002e-07
-4.61509e-09
-1.07458e-07
-5.54425e-09
-1.0106e-07
-6.39763e-09
-9.39009e-08
-7.15921e-09
-8.60879e-08
-7.81303e-09
-7.77445e-08
-8.34334e-09
-6.90098e-08
-8.73477e-09
-6.00372e-08
-8.97264e-09
-5.09939e-08
-9.04333e-09
-4.20593e-08
-8.93464e-09
-3.34232e-08
-8.6361e-09
-2.52835e-08
-8.13968e-09
-1.78429e-08
-7.44054e-09
-1.13046e-08
-6.53834e-09
-5.86509e-09
-5.43949e-09
-1.70346e-09
-4.16165e-09
1.03964e-09
-2.74309e-09
2.30075e-09
-1.26109e-09
2.16752e-09
1.33216e-10
1.04614e-09
1.12134e-09
1.04616e-09
1.06164e-09
-2.10592e-09
1.09917e-09
-1.08154e-09
-1.41567e-09
2.5212e-09
-7.17307e-09
7.17785e-09
-1.63665e-08
1.20895e-08
-2.88808e-08
1.67992e-08
-4.44135e-08
2.10494e-08
-6.2556e-08
2.47032e-08
-8.28449e-08
2.76944e-08
-1.04793e-07
2.99991e-08
-1.27912e-07
3.16195e-08
-1.5172e-07
3.2574e-08
-1.75757e-07
3.28914e-08
-1.99587e-07
3.26074e-08
-2.22799e-07
3.1762e-08
-2.45016e-07
3.03978e-08
-2.6589e-07
2.85591e-08
-2.85107e-07
2.62912e-08
-3.02386e-07
2.36399e-08
-3.1748e-07
2.06514e-08
-3.30177e-07
1.73724e-08
-3.40297e-07
1.38498e-08
-3.47697e-07
1.01313e-08
-3.5227e-07
6.26533e-09
-3.53944e-07
2.30129e-09
-3.52685e-07
-1.71027e-09
-3.48497e-07
-5.71729e-09
-3.41423e-07
-9.66631e-09
-3.31546e-07
-1.35025e-08
-3.18992e-07
-1.71695e-08
-3.03926e-07
-2.06099e-08
-2.86558e-07
-2.37656e-08
-2.67139e-07
-2.65782e-08
-2.45963e-07
-2.89896e-08
-2.23363e-07
-3.09429e-08
-1.99714e-07
-3.23835e-08
-1.75427e-07
-3.32601e-08
-1.50944e-07
-3.35259e-08
-1.26738e-07
-3.31407e-08
-1.03302e-07
-3.20725e-08
-8.11414e-08
-3.03001e-08
-6.07647e-08
-2.78172e-08
-4.26655e-08
-2.46375e-08
-2.73011e-08
-2.08039e-08
-1.50591e-08
-1.64036e-08
-6.20654e-09
-1.15956e-08
-8.09569e-10
-6.65808e-09
1.38836e-09
-2.06475e-09
1.13313e-09
1.37661e-09
2.17936e-09
5.5651e-11
-2.16169e-09
-2.40376e-09
1.3779e-09
-8.83014e-09
8.9475e-09
-1.99301e-08
1.82779e-08
-3.59079e-08
2.80673e-08
-5.66083e-08
3.74996e-08
-8.16315e-08
4.60726e-08
-1.10421e-07
5.3493e-08
-1.42329e-07
5.96018e-08
-1.76656e-07
6.4327e-08
-2.1269e-07
6.76532e-08
-2.4972e-07
6.96034e-08
-2.87054e-07
7.02263e-08
-3.24035e-07
6.95877e-08
-3.60038e-07
6.77652e-08
-3.94484e-07
6.48443e-08
-4.26841e-07
6.09156e-08
-4.56623e-07
5.60731e-08
-4.83396e-07
5.04131e-08
-5.06778e-07
4.40334e-08
-5.26439e-07
3.70334e-08
-5.42103e-07
2.95137e-08
-5.53548e-07
2.15764e-08
-5.60608e-07
1.33257e-08
-5.63175e-07
4.86778e-09
-5.61196e-07
-3.68866e-09
-5.54682e-07
-1.22321e-08
-5.437e-07
-2.06483e-08
-5.28382e-07
-2.88199e-08
-5.08924e-07
-3.66272e-08
-4.85586e-07
-4.39487e-08
-4.5869e-07
-5.06614e-08
-4.28626e-07
-5.66426e-08
-3.95844e-07
-6.17707e-08
-3.6086e-07
-6.59279e-08
-3.24242e-07
-6.90013e-08
-2.86615e-07
-7.08867e-08
-2.4865e-07
-7.14907e-08
-2.11056e-07
-7.07351e-08
-1.74567e-07
-6.85613e-08
-1.39931e-07
-6.49364e-08
-1.07887e-07
-5.98609e-08
-7.91434e-08
-5.33813e-08
-5.43407e-08
-4.56066e-08
-3.40076e-08
-3.67366e-08
-1.84971e-08
-2.71061e-08
-7.89953e-09
-1.72557e-08
-1.93243e-09
-8.03183e-09
1.93273e-10
-7.4898e-10
2.37265e-09
-1.31559e-09
-8.46027e-10
-6.98524e-09
7.0475e-09
-1.80858e-08
2.00481e-08
-3.51475e-08
3.53396e-08
-5.82659e-08
5.11857e-08
-8.71929e-08
6.64268e-08
-1.21426e-07
8.03056e-08
-1.60285e-07
9.23517e-08
-2.02974e-07
1.02291e-07
-2.48633e-07
1.09986e-07
-2.9637e-07
1.1539e-07
-3.45291e-07
1.18525e-07
-3.94522e-07
1.19457e-07
-4.43219e-07
1.18284e-07
-4.90582e-07
1.15129e-07
-5.35865e-07
1.10127e-07
-5.78377e-07
1.03428e-07
-6.1749e-07
9.51856e-08
-6.52638e-07
8.55612e-08
-6.83324e-07
7.47191e-08
-7.09117e-07
6.28269e-08
-7.29659e-07
5.00552e-08
-7.4466e-07
3.65776e-08
-7.53905e-07
2.25709e-08
-7.57253e-07
8.21585e-09
-7.54639e-07
-6.30271e-09
-7.46076e-07
-2.07954e-08
-7.31656e-07
-3.50684e-08
-7.11552e-07
-4.89235e-08
-6.86021e-07
-6.21585e-08
-6.55401e-07
-7.45686e-08
-6.20115e-07
-8.59478e-08
-5.80667e-07
-9.60905e-08
-5.37643e-07
-1.04795e-07
-4.91706e-07
-1.11865e-07
-4.43592e-07
-1.17116e-07
-3.94101e-07
-1.20377e-07
-3.44093e-07
-1.21499e-07
-2.94467e-07
-1.2036e-07
-2.46156e-07
-1.16873e-07
-2.00097e-07
-1.10995e-07
-1.57215e-07
-1.02743e-07
-1.18385e-07
-9.22112e-08
-8.43955e-08
-7.95965e-08
-5.58956e-08
-6.52366e-08
-3.33349e-08
-4.96668e-08
-1.68863e-08
-3.37043e-08
-6.36219e-09
-1.85559e-08
-1.12971e-09
-5.98138e-09
1.24291e-09
-2.77489e-09
1.92882e-09
-1.19452e-08
1.62178e-08
-2.80936e-08
3.61965e-08
-5.14549e-08
5.87009e-08
-8.19271e-08
8.1658e-08
-1.19115e-07
1.03615e-07
-1.6239e-07
1.2358e-07
-2.10945e-07
1.40907e-07
-2.63854e-07
1.552e-07
-3.20116e-07
1.66248e-07
-3.78694e-07
1.73968e-07
-4.38542e-07
1.78373e-07
-4.98632e-07
1.79547e-07
-5.5797e-07
1.77622e-07
-6.1561e-07
1.72768e-07
-6.70663e-07
1.65181e-07
-7.22308e-07
1.55073e-07
-7.69794e-07
1.42672e-07
-8.12447e-07
1.28214e-07
-8.49669e-07
1.11942e-07
-8.80947e-07
9.41047e-08
-9.05849e-07
7.49574e-08
-9.2403e-07
5.47587e-08
-9.35233e-07
3.3773e-08
-9.39287e-07
1.22706e-08
-9.36118e-07
-9.47228e-09
-9.2574e-07
-3.11729e-08
-9.08267e-07
-5.2542e-08
-8.83906e-07
-7.32844e-08
-8.52965e-07
-9.30997e-08
-8.15849e-07
-1.11684e-07
-7.73065e-07
-1.28732e-07
-7.25214e-07
-1.43941e-07
-6.72996e-07
-1.57013e-07
-6.17197e-07
-1.67663e-07
-5.58693e-07
-1.7562e-07
-4.98432e-07
-1.80638e-07
-4.37428e-07
-1.82504e-07
-3.76742e-07
-1.81046e-07
-3.17467e-07
-1.76148e-07
-2.60702e-07
-1.67759e-07
-2.07525e-07
-1.5592e-07
-1.58957e-07
-1.4078e-07
-1.15919e-07
-1.22634e-07
-7.91868e-08
-1.01968e-07
-4.93338e-08
-7.95197e-08
-2.66715e-08
-5.63666e-08
-1.11957e-08
-3.40317e-08
-2.54685e-09
-1.46302e-08
-1.30398e-09
-4.20574e-09
6.13457e-09
-1.69337e-08
2.89457e-08
-3.82567e-08
5.75194e-08
-6.8057e-08
8.85012e-08
-1.05979e-07
1.1958e-07
-1.51435e-07
1.49072e-07
-2.0364e-07
1.75785e-07
-2.6165e-07
1.98916e-07
-3.24407e-07
2.17957e-07
-3.90779e-07
2.32621e-07
-4.59599e-07
2.42788e-07
-5.2969e-07
2.48464e-07
-5.99894e-07
2.4975e-07
-6.69088e-07
2.46816e-07
-7.36202e-07
2.39882e-07
-8.0023e-07
2.29209e-07
-8.60238e-07
2.15082e-07
-9.15375e-07
1.97808e-07
-9.64871e-07
1.77709e-07
-1.00805e-06
1.55118e-07
-1.04432e-06
1.30375e-07
-1.07319e-06
1.0383e-07
-1.09427e-06
7.58401e-08
-1.10727e-06
4.67689e-08
-1.11199e-06
1.69889e-08
-1.10834e-06
-1.31193e-08
-1.09634e-06
-4.31665e-08
-1.07613e-06
-7.2755e-08
-1.04794e-06
-1.01479e-07
-1.01211e-06
-1.28926e-07
-9.69113e-07
-1.54681e-07
-9.1952e-07
-1.78325e-07
-8.64016e-07
-1.99446e-07
-8.03392e-07
-2.17637e-07
-7.38543e-07
-2.32512e-07
-6.70459e-07
-2.43704e-07
-6.00214e-07
-2.50883e-07
-5.28953e-07
-2.53765e-07
-4.57876e-07
-2.52124e-07
-3.88214e-07
-2.45809e-07
-3.21209e-07
-2.34764e-07
-2.58077e-07
-2.19052e-07
-1.99976e-07
-1.98881e-07
-1.47966e-07
-1.74645e-07
-1.02962e-07
-1.46972e-07
-6.56917e-08
-1.1679e-07
-3.66516e-08
-8.54067e-08
-1.60779e-08
-5.46054e-08
-3.94233e-09
-2.67658e-08
-5.24626e-09
-5.56811e-09
1.17028e-08
-2.1795e-08
4.51724e-08
-4.82785e-08
8.4003e-08
-8.45335e-08
1.24756e-07
-1.29919e-07
1.64966e-07
-1.83626e-07
2.02778e-07
-2.44684e-07
2.36843e-07
-3.11995e-07
2.66227e-07
-3.84361e-07
2.90323e-07
-4.60521e-07
3.08781e-07
-5.39183e-07
3.21449e-07
-6.19051e-07
3.28332e-07
-6.98849e-07
3.29548e-07
-7.77343e-07
3.25311e-07
-8.53357e-07
3.15896e-07
-9.25783e-07
3.01635e-07
-9.93594e-07
2.82892e-07
-1.05585e-06
2.60063e-07
-1.1117e-06
2.33562e-07
-1.1604e-06
2.03819e-07
-1.2013e-06
1.71277e-07
-1.23386e-06
1.36391e-07
-1.25765e-06
9.96236e-08
-1.27233e-06
6.14503e-08
-1.2777e-06
2.23553e-08
-1.27365e-06
-1.71661e-08
-1.26021e-06
-5.66072e-08
-1.23751e-06
-9.54507e-08
-1.20582e-06
-1.33169e-07
-1.16552e-06
-1.69228e-07
-1.11712e-06
-2.03086e-07
-1.06124e-06
-2.34204e-07
-9.98638e-07
-2.62045e-07
-9.3019e-07
-2.86086e-07
-8.56876e-07
-3.05825e-07
-7.79786e-07
-3.20794e-07
-7.001e-07
-3.30568e-07
-6.19081e-07
-3.34784e-07
-5.38049e-07
-3.33156e-07
-4.58364e-07
-3.25494e-07
-3.81398e-07
-3.1173e-07
-3.08503e-07
-2.91947e-07
-2.40977e-07
-2.66407e-07
-1.80027e-07
-2.35595e-07
-1.26728e-07
-2.00271e-07
-8.19905e-08
-1.61528e-07
-4.65285e-08
-1.20869e-07
-2.08503e-08
-8.02836e-08
-5.27385e-09
-4.23423e-08
-1.05201e-08
-6.85638e-09
1.85591e-08
-2.64803e-08
6.47963e-08
-5.80455e-08
1.15568e-07
-1.00707e-07
1.67418e-07
-1.53528e-07
2.17787e-07
-2.15454e-07
2.64703e-07
-2.85312e-07
3.06702e-07
-3.61832e-07
3.42747e-07
-4.43666e-07
3.72157e-07
-5.29416e-07
3.94532e-07
-6.17668e-07
4.09701e-07
-7.07009e-07
4.17673e-07
-7.96057e-07
4.18596e-07
-8.83477e-07
4.1273e-07
-9.67995e-07
4.00415e-07
-1.04842e-06
3.82057e-07
-1.12363e-06
3.58109e-07
-1.19263e-06
3.2906e-07
-1.25449e-06
2.95425e-07
-1.30841e-06
2.5774e-07
-1.35369e-06
2.16557e-07
-1.38975e-06
1.72444e-07
-1.4161e-06
1.25979e-07
-1.43241e-06
7.77556e-08
-1.43843e-06
2.83785e-08
-1.43406e-06
-2.15332e-08
-1.41932e-06
-7.1347e-08
-1.39436e-06
-1.20417e-07
-1.35944e-06
-1.68085e-07
-1.31499e-06
-2.13683e-07
-1.26154e-06
-2.56538e-07
-1.19977e-06
-2.95975e-07
-1.13048e-06
-3.31327e-07
-1.05463e-06
-3.61941e-07
-9.73258e-07
-3.87194e-07
-8.8755e-07
-4.06502e-07
-7.9878e-07
-4.19338e-07
-7.08314e-07
-4.2525e-07
-6.17587e-07
-4.23883e-07
-5.2808e-07
-4.15001e-07
-4.41293e-07
-3.98517e-07
-3.58716e-07
-3.74523e-07
-2.81796e-07
-3.43326e-07
-2.11901e-07
-3.0549e-07
-1.50286e-07
-2.61886e-07
-9.80658e-08
-2.13748e-07
-5.61946e-08
-1.6274e-07
-2.54655e-08
-1.11013e-07
-6.53533e-09
-6.12724e-08
-1.70554e-08
-8.07995e-09
2.66391e-08
-3.09966e-08
8.7713e-08
-6.75482e-08
1.5212e-07
-1.16548e-07
2.16418e-07
-1.76762e-07
2.78e-07
-2.46878e-07
3.3482e-07
-3.25509e-07
3.85332e-07
-4.11195e-07
4.28433e-07
-5.02426e-07
4.63388e-07
-5.97663e-07
4.89769e-07
-6.95362e-07
5.07401e-07
-7.93999e-07
5.16309e-07
-8.92085e-07
5.16682e-07
-9.88189e-07
5.08834e-07
-1.08095e-06
4.9318e-07
-1.16911e-06
4.70208e-07
-1.25146e-06
4.40466e-07
-1.32695e-06
4.04543e-07
-1.39458e-06
3.63064e-07
-1.45352e-06
3.16676e-07
-1.50301e-06
2.66048e-07
-1.54244e-06
2.11866e-07
-1.57129e-06
1.54832e-07
-1.58919e-06
9.56616e-08
-1.5959e-06
3.50887e-08
-1.5913e-06
-2.61379e-08
-1.57539e-06
-8.72527e-08
-1.54834e-06
-1.47474e-07
-1.51042e-06
-2.06005e-07
-1.46206e-06
-2.62039e-07
-1.40384e-06
-3.14758e-07
-1.33647e-06
-3.63346e-07
-1.2608e-06
-4.06995e-07
-1.17783e-06
-4.44914e-07
-1.08868e-06
-4.76345e-07
-9.946e-07
-5.00581e-07
-8.96958e-07
-5.1698e-07
-7.97217e-07
-5.24992e-07
-6.96919e-07
-5.24181e-07
-5.97666e-07
-5.14254e-07
-5.01089e-07
-4.95093e-07
-4.08826e-07
-4.66787e-07
-3.22479e-07
-4.29672e-07
-2.43595e-07
-3.84375e-07
-1.73626e-07
-3.31856e-07
-1.13909e-07
-2.73465e-07
-6.56519e-08
-2.10997e-07
-2.99351e-08
-1.4673e-07
-7.73732e-09
-8.34702e-08
-2.47928e-08
-9.25406e-09
3.58931e-08
-3.53771e-08
1.13836e-07
-7.68323e-08
1.93575e-07
-1.32111e-07
2.71697e-07
-1.99684e-07
3.45573e-07
-2.77981e-07
4.13116e-07
-3.65383e-07
4.72735e-07
-4.60233e-07
5.23283e-07
-5.60848e-07
5.64003e-07
-6.65538e-07
5.94459e-07
-7.72627e-07
6.14489e-07
-8.80471e-07
6.24154e-07
-9.87481e-07
6.23693e-07
-1.09214e-06
6.13489e-07
-1.19299e-06
5.94038e-07
-1.28871e-06
5.65924e-07
-1.37804e-06
5.29795e-07
-1.45985e-06
4.86351e-07
-1.53311e-06
4.36331e-07
-1.59694e-06
3.805e-07
-1.65054e-06
3.1965e-07
-1.69326e-06
2.5459e-07
-1.72458e-06
1.8615e-07
-1.7441e-06
1.15177e-07
-1.75154e-06
4.25346e-08
-1.74679e-06
-3.08921e-08
-1.72984e-06
-1.04199e-07
-1.70085e-06
-1.76465e-07
-1.66011e-06
-2.46746e-07
-1.60806e-06
-3.1409e-07
-1.54529e-06
-3.77529e-07
-1.47254e-06
-4.36097e-07
-1.3907e-06
-4.88835e-07
-1.30081e-06
-5.34804e-07
-1.20405e-06
-5.73102e-07
-1.10174e-06
-6.02886e-07
-9.95338e-07
-6.23387e-07
-8.86385e-07
-6.33944e-07
-7.76539e-07
-6.34027e-07
-6.67522e-07
-6.23271e-07
-5.61104e-07
-6.01511e-07
-4.59075e-07
-5.68816e-07
-3.63212e-07
-5.25536e-07
-2.7525e-07
-4.72336e-07
-1.96856e-07
-4.1025e-07
-1.29604e-07
-3.40717e-07
-7.49635e-08
-2.65637e-07
-3.43005e-08
-1.87393e-07
-8.89709e-09
-1.08874e-07
-3.36898e-08
-1.03953e-08
4.62885e-08
-3.96665e-08
1.43107e-07
-8.59712e-08
2.3988e-07
-1.47495e-07
3.33221e-07
-2.22421e-07
4.20499e-07
-3.08914e-07
4.99609e-07
-4.05119e-07
5.6894e-07
-5.0917e-07
6.27335e-07
-6.19201e-07
6.74034e-07
-7.33364e-07
7.08621e-07
-8.49843e-07
7.30968e-07
-9.66875e-07
7.41187e-07
-1.08277e-06
7.39585e-07
-1.19591e-06
7.26629e-07
-1.30478e-06
7.0291e-07
-1.40797e-06
6.69113e-07
-1.50418e-06
6.26001e-07
-1.59221e-06
5.7439e-07
-1.67102e-06
5.15139e-07
-1.73966e-06
4.4914e-07
-1.79732e-06
3.7731e-07
-1.84332e-06
3.0059e-07
-1.87711e-06
2.19938e-07
-1.89827e-06
1.36335e-07
-1.90651e-06
5.07808e-08
-1.9017e-06
-3.57008e-08
-1.88384e-06
-1.22065e-07
-1.85306e-06
-2.07243e-07
-1.80966e-06
-2.90145e-07
-1.75409e-06
-3.69663e-07
-1.68694e-06
-4.44675e-07
-1.60898e-06
-5.14057e-07
-1.52113e-06
-5.76689e-07
-1.42446e-06
-6.31476e-07
-1.3202e-06
-6.7736e-07
-1.20974e-06
-7.13346e-07
-1.0946e-06
-7.38529e-07
-9.76422e-07
-7.52119e-07
-8.56975e-07
-7.53475e-07
-7.38104e-07
-7.42142e-07
-6.21725e-07
-7.1789e-07
-5.09792e-07
-6.8075e-07
-4.04265e-07
-6.31063e-07
-3.07087e-07
-5.69514e-07
-2.20153e-07
-4.97184e-07
-1.45286e-07
-4.15584e-07
-8.42242e-08
-3.26699e-07
-3.86164e-08
-2.33e-07
-1.00341e-08
-1.37456e-07
-4.37239e-08
-1.15201e-08
5.78085e-08
-4.39128e-08
1.755e-07
-9.50496e-08
2.91016e-07
-1.62822e-07
4.00993e-07
-2.45128e-07
5.02805e-07
-3.39865e-07
5.94347e-07
-4.44938e-07
6.74013e-07
-5.58262e-07
7.40659e-07
-6.7778e-07
7.93552e-07
-8.01475e-07
8.32317e-07
-9.27389e-07
8.56882e-07
-1.05364e-06
8.67433e-07
-1.17842e-06
8.64365e-07
-1.30003e-06
8.48242e-07
-1.41688e-06
8.19764e-07
-1.5275e-06
7.79734e-07
-1.63054e-06
7.29034e-07
-1.72475e-06
6.68607e-07
-1.80906e-06
5.99442e-07
-1.88248e-06
5.22561e-07
-1.94418e-06
4.39012e-07
-1.99346e-06
3.49867e-07
-2.02974e-06
2.5622e-07
-2.05259e-06
1.59187e-07
-2.06172e-06
5.99057e-08
-2.05696e-06
-4.0461e-08
-2.0383e-06
-1.40724e-07
-2.00587e-06
-2.39666e-07
-1.95997e-06
-3.36046e-07
-1.90104e-06
-4.28597e-07
-1.82968e-06
-5.16039e-07
-1.74665e-06
-5.97079e-07
-1.65291e-06
-6.70432e-07
-1.54956e-06
-7.34831e-07
-1.43786e-06
-7.89053e-07
-1.31927e-06
-8.31938e-07
-1.19537e-06
-8.62425e-07
-1.06791e-06
-8.79579e-07
-9.3876e-07
-8.82629e-07
-8.09892e-07
-8.7101e-07
-6.83378e-07
-8.44404e-07
-5.61346e-07
-8.02782e-07
-4.45957e-07
-7.46451e-07
-3.39374e-07
-6.76097e-07
-2.43733e-07
-5.92825e-07
-1.61118e-07
-4.98199e-07
-9.35439e-08
-3.94273e-07
-4.29432e-08
-2.83601e-07
-1.1168e-08
-1.69231e-07
-5.48919e-08
-1.26434e-08
7.04519e-08
-4.81633e-08
2.1102e-07
-1.04154e-07
3.47007e-07
-1.78218e-07
4.75058e-07
-2.6797e-07
5.92556e-07
-3.71038e-07
6.97415e-07
-4.85076e-07
7.88051e-07
-6.07776e-07
8.63358e-07
-7.3688e-07
9.22656e-07
-8.70197e-07
9.65634e-07
-1.00562e-06
9.92305e-07
-1.14113e-06
1.00295e-06
-1.27483e-06
9.98066e-07
-1.40493e-06
9.78341e-07
-1.52977e-06
9.44597e-07
-1.6478e-06
8.97767e-07
-1.75763e-06
8.38867e-07
-1.858e-06
7.68975e-07
-1.94777e-06
6.89216e-07
-2.02596e-06
6.00747e-07
-2.0917e-06
5.04753e-07
-2.14427e-06
4.0244e-07
-2.18309e-06
2.95039e-07
-2.20771e-06
1.83799e-07
-2.2178e-06
6.99986e-08
-2.2132e-06
-4.50602e-08
-2.19388e-06
-1.60044e-07
-2.15996e-06
-2.73586e-07
-2.11171e-06
-3.84292e-07
-2.04958e-06
-4.90734e-07
-1.97415e-06
-5.91466e-07
-1.8862e-06
-6.85024e-07
-1.78669e-06
-7.69944e-07
-1.67674e-06
-8.44783e-07
-1.55766e-06
-9.08133e-07
-1.43094e-06
-9.58657e-07
-1.29825e-06
-9.95119e-07
-1.16141e-06
-1.01642e-06
-1.02241e-06
-1.02163e-06
-8.83362e-07
-1.01006e-06
-7.46497e-07
-9.81269e-07
-6.14129e-07
-9.3515e-07
-4.8863e-07
-8.71951e-07
-3.72398e-07
-7.9233e-07
-2.67825e-07
-6.97398e-07
-1.77272e-07
-5.88753e-07
-1.03037e-07
-4.68508e-07
-4.73417e-08
-3.39296e-07
-1.23178e-08
-2.04255e-07
-6.72098e-08
-1.37791e-08
8.4231e-08
-5.24623e-08
2.49703e-07
-1.13368e-07
4.07912e-07
-1.93809e-07
5.55499e-07
-2.91112e-07
6.8986e-07
-4.02632e-07
8.08934e-07
-5.25764e-07
9.11184e-07
-6.57969e-07
9.95563e-07
-7.9678e-07
1.06147e-06
-9.39826e-07
1.10868e-06
-1.08484e-06
1.13732e-06
-1.22969e-06
1.14779e-06
-1.37235e-06
1.14073e-06
-1.51096e-06
1.11694e-06
-1.64377e-06
1.07741e-06
-1.7692e-06
1.0232e-06
-1.88581e-06
9.55476e-07
-1.9923e-06
8.75467e-07
-2.08752e-06
7.84437e-07
-2.17046e-06
6.83686e-07
-2.24024e-06
5.74536e-07
-2.29614e-06
4.58332e-07
-2.33754e-06
3.36439e-07
-2.36398e-06
2.10243e-07
-2.37514e-06
8.11571e-08
-2.37082e-06
-4.93762e-08
-2.35099e-06
-1.79881e-07
-2.31573e-06
-3.08843e-07
-2.26531e-06
-4.34711e-07
-2.20014e-06
-5.55899e-07
-2.12082e-06
-6.70788e-07
-2.02811e-06
-7.77737e-07
-1.92296e-06
-8.75098e-07
-1.8065e-06
-9.61235e-07
-1.68009e-06
-1.03455e-06
-1.54525e-06
-1.0935e-06
-1.40371e-06
-1.13666e-06
-1.2574e-06
-1.16273e-06
-1.1084e-06
-1.17063e-06
-9.58967e-07
-1.15949e-06
-8.11507e-07
-1.12873e-06
-6.68527e-07
-1.07813e-06
-5.32625e-07
-1.00785e-06
-4.06449e-07
-9.18506e-07
-2.92665e-07
-8.11181e-07
-1.93922e-07
-6.87496e-07
-1.12817e-07
-5.49613e-07
-5.18709e-08
-4.00242e-07
-1.35014e-08
-2.42624e-07
-8.07112e-08
-1.49393e-08
9.91703e-08
-5.68502e-08
2.91614e-07
-1.22768e-07
4.7383e-07
-2.0971e-07
6.42441e-07
-3.14709e-07
7.94858e-07
-4.34834e-07
9.29059e-07
-5.67218e-07
1.04357e-06
-7.09076e-07
1.13742e-06
-8.57728e-07
1.21012e-06
-1.01062e-06
1.26157e-06
-1.16532e-06
1.29202e-06
-1.31956e-06
1.30203e-06
-1.47121e-06
1.29239e-06
-1.61833e-06
1.26406e-06
-1.7591e-06
1.21818e-06
-1.8919e-06
1.15599e-06
-2.01524e-06
1.07882e-06
-2.12781e-06
9.88039e-07
-2.22844e-06
8.85066e-07
-2.31611e-06
7.71349e-07
-2.38992e-06
6.48352e-07
-2.44915e-06
5.17557e-07
-2.49317e-06
3.80463e-07
-2.52152e-06
2.3859e-07
-2.53384e-06
9.34838e-08
-2.52994e-06
-5.32768e-08
-2.50975e-06
-2.00076e-07
-2.47334e-06
-3.45255e-07
-2.42094e-06
-4.8711e-07
-2.35295e-06
-6.2389e-07
-2.26993e-06
-7.53806e-07
-2.17263e-06
-8.75033e-07
-2.062e-06
-9.85731e-07
-1.93917e-06
-1.08406e-06
-1.80551e-06
-1.16821e-06
-1.66258e-06
-1.23642e-06
-1.51218e-06
-1.28706e-06
-1.35629e-06
-1.31862e-06
-1.19714e-06
-1.32978e-06
-1.03712e-06
-1.31951e-06
-8.788e-07
-1.28705e-06
-7.24906e-07
-1.23202e-06
-5.78271e-07
-1.15449e-06
-4.4181e-07
-1.05497e-06
-3.1848e-07
-9.34511e-07
-2.11236e-07
-7.94739e-07
-1.22994e-07
-6.37855e-07
-5.65875e-08
-4.66649e-07
-1.47355e-08
-2.84477e-07
-9.54466e-08
-1.61348e-08
1.15305e-07
-6.13636e-08
3.36843e-07
-1.32425e-07
5.44892e-07
-2.26029e-07
7.36045e-07
-3.38901e-07
9.0773e-07
-4.67815e-07
1.05797e-06
-6.09626e-07
1.18538e-06
-7.61299e-07
1.28909e-06
-9.19931e-07
1.36875e-06
-1.08277e-06
1.42441e-06
-1.24723e-06
1.45648e-06
-1.41089e-06
1.4657e-06
-1.57155e-06
1.45304e-06
-1.72715e-06
1.41966e-06
-1.87583e-06
1.36687e-06
-2.01592e-06
1.29609e-06
-2.14592e-06
1.20882e-06
-2.26449e-06
1.10661e-06
-2.37045e-06
9.91028e-07
-2.46278e-06
8.63678e-07
-2.54059e-06
7.26165e-07
-2.60315e-06
5.80108e-07
-2.64982e-06
4.27138e-07
-2.68014e-06
2.68905e-07
-2.69373e-06
1.07083e-07
-2.69039e-06
-5.66204e-08
-2.67001e-06
-2.20454e-07
-2.63265e-06
-3.82618e-07
-2.5785e-06
-5.41259e-07
-2.50793e-06
-6.94466e-07
-2.42146e-06
-8.40275e-07
-2.31981e-06
-9.76677e-07
-2.20392e-06
-1.10163e-06
-2.0749e-06
-1.21308e-06
-1.93412e-06
-1.30898e-06
-1.78318e-06
-1.38736e-06
-1.62392e-06
-1.44633e-06
-1.45841e-06
-1.48412e-06
-1.28898e-06
-1.49922e-06
-1.11817e-06
-1.49032e-06
-9.48729e-07
-1.45649e-06
-7.83603e-07
-1.39715e-06
-6.25876e-07
-1.31221e-06
-4.78748e-07
-1.20209e-06
-3.45487e-07
-1.06777e-06
-2.29378e-07
-9.10849e-07
-1.33673e-07
-7.3356e-07
-6.15449e-08
-5.38777e-07
-1.60357e-08
-3.29986e-07
-1.11482e-07
-1.73752e-08
1.3268e-07
-6.60353e-08
3.85503e-07
-1.42403e-07
6.21259e-07
-2.42862e-07
8.36505e-07
-3.63814e-07
1.02868e-06
-5.01723e-07
1.19588e-06
-6.53153e-07
1.33681e-06
-8.14806e-07
1.45075e-06
-9.83545e-07
1.53749e-06
-1.15642e-06
1.59728e-06
-1.33068e-06
1.63074e-06
-1.50377e-06
1.6388e-06
-1.67338e-06
1.62265e-06
-1.83738e-06
1.58366e-06
-1.99387e-06
1.52335e-06
-2.14113e-06
1.44335e-06
-2.27764e-06
1.34533e-06
-2.40207e-06
1.23103e-06
-2.51323e-06
1.10219e-06
-2.61012e-06
9.60564e-07
-2.69185e-06
8.07896e-07
-2.75769e-06
6.45944e-07
-2.80702e-06
4.76468e-07
-2.83935e-06
3.01239e-07
-2.85432e-06
1.22054e-07
-2.85169e-06
-5.92568e-08
-2.83132e-06
-2.40817e-07
-2.79325e-06
-4.20693e-07
-2.73762e-06
-5.96888e-07
-2.66475e-06
-7.67332e-07
-2.57514e-06
-9.29891e-07
-2.46945e-06
-1.08237e-06
-2.34857e-06
-1.22251e-06
-2.21362e-06
-1.34803e-06
-2.06594e-06
-1.45666e-06
-1.90714e-06
-1.54616e-06
-1.7391e-06
-1.61436e-06
-1.56397e-06
-1.65925e-06
-1.38417e-06
-1.67901e-06
-1.2024e-06
-1.67209e-06
-1.02159e-06
-1.63729e-06
-8.44914e-07
-1.57383e-06
-6.75719e-07
-1.48141e-06
-5.17511e-07
-1.3603e-06
-3.7389e-07
-1.21139e-06
-2.48497e-07
-1.03624e-06
-1.44952e-07
-8.37105e-07
-6.67935e-08
-6.16935e-07
-1.74168e-08
-3.79362e-07
-1.28899e-07
-1.86694e-08
1.5135e-07
-7.08948e-08
4.37728e-07
-1.52758e-07
7.03123e-07
-2.60294e-07
9.4404e-07
-3.89558e-07
1.15795e-06
-5.36684e-07
1.34301e-06
-6.97931e-07
1.49806e-06
-8.69721e-07
1.62254e-06
-1.04868e-06
1.71644e-06
-1.23164e-06
1.78024e-06
-1.41569e-06
1.81479e-06
-1.59816e-06
1.82127e-06
-1.77661e-06
1.8011e-06
-1.94886e-06
1.75591e-06
-2.11295e-06
1.68745e-06
-2.26717e-06
1.59756e-06
-2.40997e-06
1.48814e-06
-2.54004e-06
1.3611e-06
-2.65621e-06
1.21836e-06
-2.75747e-06
1.06183e-06
-2.84299e-06
8.93409e-07
-2.91202e-06
7.14978e-07
-2.96397e-06
5.2842e-07
-2.99836e-06
3.35622e-07
-3.01479e-06
1.38491e-07
-3.01302e-06
-6.103e-08
-2.99289e-06
-2.60949e-07
-2.95437e-06
-4.59208e-07
-2.89759e-06
-6.53675e-07
-2.82279e-06
-8.42132e-07
-2.7304e-06
-1.02227e-06
-2.62106e-06
-1.19171e-06
-2.49558e-06
-1.34798e-06
-2.35504e-06
-1.48857e-06
-2.20077e-06
-1.61094e-06
-2.03435e-06
-1.71257e-06
-1.85771e-06
-1.79101e-06
-1.67304e-06
-1.84393e-06
-1.48286e-06
-1.86919e-06
-1.29001e-06
-1.86494e-06
-1.09762e-06
-1.82968e-06
-9.09089e-07
-1.76236e-06
-7.28046e-07
-1.66245e-06
-5.58322e-07
-1.53002e-06
-4.03877e-07
-1.36584e-06
-2.68738e-07
-1.17138e-06
-1.56925e-07
-9.48918e-07
-7.23811e-08
-7.01479e-07
-1.88926e-08
-4.32851e-07
-1.47792e-07
-2.00251e-08
1.71375e-07
-7.59691e-08
4.93672e-07
-1.63543e-07
7.90696e-07
-2.78401e-07
1.0589e-06
-4.16229e-07
1.29577e-06
-5.72804e-07
1.49958e-06
-7.4406e-07
1.66931e-06
-9.26126e-07
1.8046e-06
-1.11537e-06
1.90569e-06
-1.30843e-06
1.9733e-06
-1.5022e-06
2.00857e-06
-1.6939e-06
2.01296e-06
-1.88099e-06
1.98819e-06
-2.06123e-06
1.93615e-06
-2.23265e-06
1.85886e-06
-2.3935e-06
1.75841e-06
-2.54227e-06
1.63691e-06
-2.67765e-06
1.49649e-06
-2.79852e-06
1.33923e-06
-2.90391e-06
1.16722e-06
-2.993e-06
9.82492e-07
-3.06508e-06
7.87058e-07
-3.11957e-06
5.82913e-07
-3.156e-06
3.72049e-07
-3.17398e-06
1.56471e-07
-3.17322e-06
-6.17801e-08
-3.15356e-06
-2.80609e-07
-3.11492e-06
-4.97849e-07
-3.05736e-06
-7.11243e-07
-2.98105e-06
-9.18433e-07
-2.88638e-06
-1.11695e-06
-2.77387e-06
-1.30422e-06
-2.64429e-06
-1.47756e-06
-2.49864e-06
-1.63422e-06
-2.3382e-06
-1.77138e-06
-2.16454e-06
-1.88623e-06
-1.97958e-06
-1.97598e-06
-1.78555e-06
-2.03795e-06
-1.58508e-06
-2.06966e-06
-1.38112e-06
-2.0689e-06
-1.17698e-06
-2.03382e-06
-9.76321e-07
-1.96303e-06
-7.83062e-07
-1.85571e-06
-6.01379e-07
-1.71171e-06
-4.35619e-07
-1.5316e-06
-2.90232e-07
-1.31677e-06
-1.6968e-07
-1.06947e-06
-7.83536e-08
-7.92806e-07
-2.04767e-08
-4.90728e-07
-1.68268e-07
-2.14501e-08
1.92825e-07
-8.12839e-08
5.53506e-07
-1.74804e-07
8.84216e-07
-2.97252e-07
1.18135e-06
-4.43908e-07
1.44243e-06
-6.10168e-07
1.66584e-06
-7.91612e-07
1.85075e-06
-9.84062e-07
1.99705e-06
-1.18362e-06
2.10525e-06
-1.3867e-06
2.17638e-06
-1.59004e-06
2.21191e-06
-1.79072e-06
2.21364e-06
-1.98614e-06
2.1836e-06
-2.174e-06
2.12401e-06
-2.35231e-06
2.03717e-06
-2.51935e-06
1.92545e-06
-2.67363e-06
1.79119e-06
-2.81389e-06
1.63674e-06
-2.93904e-06
1.46439e-06
-3.04818e-06
1.27636e-06
-3.14053e-06
1.07484e-06
-3.21542e-06
8.61955e-07
-3.27232e-06
6.39806e-07
-3.31074e-06
4.10474e-07
-3.33032e-06
1.76049e-07
-3.33075e-06
-6.13484e-08
-3.31182e-06
-2.99538e-07
-3.27341e-06
-5.36259e-07
-3.21551e-06
-7.69147e-07
-3.13822e-06
-9.95716e-07
-3.04183e-06
-1.21335e-06
-2.92677e-06
-1.41928e-06
-2.79371e-06
-1.61062e-06
-2.64357e-06
-1.78436e-06
-2.47755e-06
-1.93741e-06
-2.29718e-06
-2.0666e-06
-2.10433e-06
-2.16882e-06
-1.90129e-06
-2.241e-06
-1.69071e-06
-2.28024e-06
-1.4757e-06
-2.28391e-06
-1.25975e-06
-2.24977e-06
-1.04675e-06
-2.17603e-06
-8.40933e-07
-2.06152e-06
-6.46852e-07
-1.90579e-06
-4.69272e-07
-1.70918e-06
-3.13104e-07
-1.47294e-06
-1.83302e-07
-1.19927e-06
-8.47554e-08
-8.91352e-07
-2.21822e-08
-5.53301e-07
-1.90451e-07
-2.29518e-08
2.15777e-07
-8.68645e-08
6.17419e-07
-1.8659e-07
9.83942e-07
-3.16914e-07
1.31167e-06
-4.72673e-07
1.59819e-06
-6.48845e-07
1.84202e-06
-8.40632e-07
2.04254e-06
-1.04353e-06
2.19995e-06
-1.25335e-06
2.31507e-06
-1.4663e-06
2.38933e-06
-1.67894e-06
2.42456e-06
-1.88824e-06
2.42294e-06
-2.09152e-06
2.38688e-06
-2.28647e-06
2.31896e-06
-2.4711e-06
2.2218e-06
-2.64371e-06
2.09806e-06
-2.80288e-06
1.95037e-06
-2.94741e-06
1.78127e-06
-3.0763e-06
1.59327e-06
-3.18869e-06
1.38875e-06
-3.28387e-06
1.17003e-06
-3.36126e-06
9.39342e-07
-3.42034e-06
6.9888e-07
-3.46066e-06
4.50799e-07
-3.48186e-06
1.9725e-07
-3.48363e-06
-5.95817e-08
-3.46571e-06
-3.17455e-07
-3.42793e-06
-5.74036e-07
-3.37021e-06
-8.26873e-07
-3.29256e-06
-1.07337e-06
-3.19514e-06
-1.31076e-06
-3.07829e-06
-1.53613e-06
-2.94254e-06
-1.74636e-06
-2.7887e-06
-1.9382e-06
-2.61787e-06
-2.10824e-06
-2.43148e-06
-2.25299e-06
-2.23138e-06
-2.36893e-06
-2.01981e-06
-2.45256e-06
-1.7995e-06
-2.50055e-06
-1.57364e-06
-2.50977e-06
-1.34591e-06
-2.4775e-06
-1.12043e-06
-2.40151e-06
-9.01778e-07
-2.28018e-06
-6.94884e-07
-2.11268e-06
-5.04975e-07
-1.89909e-06
-3.37471e-07
-1.64044e-06
-1.97872e-07
-1.33887e-06
-9.16304e-08
-9.97594e-07
-2.40223e-08
-6.20909e-07
-2.14473e-07
-2.45384e-08
2.40315e-07
-9.27376e-08
6.85618e-07
-1.98949e-07
1.09015e-06
-3.37452e-07
1.45017e-06
-5.02592e-07
1.76333e-06
-6.88891e-07
2.02831e-06
-8.91141e-07
2.24479e-06
-1.10448e-06
2.41328e-06
-1.32444e-06
2.53503e-06
-1.54698e-06
2.61187e-06
-1.76852e-06
2.64609e-06
-1.9859e-06
2.64032e-06
-2.19642e-06
2.5974e-06
-2.39774e-06
2.52028e-06
-2.58792e-06
2.41197e-06
-2.76531e-06
2.27546e-06
-2.92857e-06
2.11363e-06
-3.0766e-06
1.9293e-06
-3.20848e-06
1.72515e-06
-3.32347e-06
1.50374e-06
-3.42095e-06
1.2675e-06
-3.50039e-06
1.01878e-06
-3.56133e-06
7.59827e-07
-3.60339e-06
4.92855e-07
-3.6262e-06
2.2006e-07
-3.62944e-06
-5.63391e-08
-3.61283e-06
-3.34063e-07
-3.57614e-06
-6.10731e-07
-3.51918e-06
-8.83828e-07
-3.44188e-06
-1.15067e-06
-3.34427e-06
-1.40838e-06
-3.22653e-06
-1.65387e-06
-3.08907e-06
-1.88383e-06
-2.93252e-06
-2.09474e-06
-2.75786e-06
-2.28291e-06
-2.56639e-06
-2.44446e-06
-2.35986e-06
-2.57545e-06
-2.14049e-06
-2.67193e-06
-1.911e-06
-2.73003e-06
-1.67467e-06
-2.7461e-06
-1.43534e-06
-2.71684e-06
-1.19737e-06
-2.63947e-06
-9.65668e-07
-2.51188e-06
-7.45588e-07
-2.33276e-06
-5.42853e-07
-2.10182e-06
-3.63445e-07
-1.81985e-06
-2.13473e-07
-1.48884e-06
-9.90231e-08
-1.11204e-06
-2.60109e-08
-6.93921e-07
-2.40484e-07
-2.6219e-08
2.66534e-07
-9.89331e-08
7.58332e-07
-2.11934e-07
1.20315e-06
-3.58935e-07
1.59718e-06
-5.33738e-07
1.93813e-06
-7.30358e-07
2.22493e-06
-9.4314e-07
2.45757e-06
-1.16684e-06
2.63698e-06
-1.39668e-06
2.76487e-06
-1.62841e-06
2.8436e-06
-1.85827e-06
2.87596e-06
-2.08303e-06
2.86508e-06
-2.29994e-06
2.81431e-06
-2.50671e-06
2.72705e-06
-2.70144e-06
2.6067e-06
-2.88259e-06
2.4566e-06
-3.04892e-06
2.27997e-06
-3.19946e-06
2.07984e-06
-3.33343e-06
1.85911e-06
-3.45019e-06
1.6205e-06
-3.54924e-06
1.36655e-06
-3.63015e-06
1.09969e-06
-3.69255e-06
8.22228e-07
-3.7361e-06
5.36398e-07
-3.76045e-06
2.44414e-07
-3.76529e-06
-5.14994e-08
-3.7503e-06
-3.49053e-07
-3.71518e-06
-6.4585e-07
-3.65967e-06
-9.39343e-07
-3.58355e-06
-1.22679e-06
-3.48671e-06
-1.50521e-06
-3.36918e-06
-1.7714e-06
-3.23117e-06
-2.02184e-06
-3.07314e-06
-2.25277e-06
-2.89586e-06
-2.46018e-06
-2.7005e-06
-2.63983e-06
-2.48865e-06
-2.7873e-06
-2.26244e-06
-2.89814e-06
-2.02457e-06
-2.9679e-06
-1.77837e-06
-2.9923e-06
-1.5278e-06
-2.96742e-06
-1.27747e-06
-2.8898e-06
-1.03262e-06
-2.75672e-06
-7.99051e-07
-2.56633e-06
-5.8302e-07
-2.31785e-06
-3.91134e-07
-2.01173e-06
-2.30184e-07
-1.64979e-06
-1.0698e-07
-1.23525e-06
-2.81623e-08
-7.72738e-07
-2.68646e-07
-2.80046e-08
2.94539e-07
-1.05486e-07
8.35814e-07
-2.25607e-07
1.32327e-06
-3.81445e-07
1.75301e-06
-5.66189e-07
2.12287e-06
-7.73295e-07
2.43204e-06
-9.96614e-07
2.68089e-06
-1.23049e-06
2.87086e-06
-1.46984e-06
3.00422e-06
-1.71016e-06
3.08392e-06
-1.94757e-06
3.11336e-06
-2.17877e-06
3.09628e-06
-2.401e-06
3.03654e-06
-2.61202e-06
2.93808e-06