/*--------------------------------*- C++ -*----------------------------------*\
| =========                 |                                                 |
| \\      /  F ield         | OpenFOAM: The Open Source CFD Toolbox           |
|  \\    /   O peration     | Version:  v2012                                 |
|   \\  /    A nd           | Website:  www.openfoam.com                      |
|    \\/     M anipulation  |                                                 |
\*---------------------------------------------------------------------------*/
FoamFile
{
    version     2.0;
    format      ascii;
    class       volVectorField;
    location    "0.05";
    object      U;
}
// * * * * * * * * * * * * * * * * * * * * * * * * * * * * * * * * * * * * * //

dimensions      [0 1 -1 0 0 0 0];


internalField   nonuniform List<vector> 
2500
(
(2.91822e-05 -2.90842e-05 0)
(8.65559e-05 -3.5101e-05 0)
(0.000116841 -1.68553e-05 0)
(8.40035e-05 9.10406e-06 0)
(-2.36699e-05 3.57025e-05 0)
(-0.000204334 6.01328e-05 0)
(-0.000451137 8.12978e-05 0)
(-0.000755132 9.88654e-05 0)
(-0.00110647 0.000112842 0)
(-0.00149509 0.00012337 0)
(-0.00191106 0.000130645 0)
(-0.00234481 0.000134883 0)
(-0.00278728 0.000136304 0)
(-0.00322993 0.000135127 0)
(-0.00366484 0.000131576 0)
(-0.00408468 0.000125865 0)
(-0.00448277 0.000118199 0)
(-0.00485304 0.000108779 0)
(-0.00519005 9.7802e-05 0)
(-0.00548899 8.54593e-05 0)
(-0.00574566 7.19399e-05 0)
(-0.00595649 5.7431e-05 0)
(-0.00611855 4.21219e-05 0)
(-0.00622952 2.62026e-05 0)
(-0.00628774 9.86574e-06 0)
(-0.00629221 -6.68777e-06 0)
(-0.00624261 -2.32509e-05 0)
(-0.00613931 -3.96102e-05 0)
(-0.00598341 -5.55416e-05 0)
(-0.00577676 -7.08132e-05 0)
(-0.00552197 -8.51871e-05 0)
(-0.00522242 -9.84178e-05 0)
(-0.00488233 -0.000110253 0)
(-0.00450666 -0.00012044 0)
(-0.00410121 -0.000128723 0)
(-0.00367254 -0.000134849 0)
(-0.00322799 -0.000138572 0)
(-0.00277558 -0.000139655 0)
(-0.002324 -0.000137877 0)
(-0.00188251 -0.000133029 0)
(-0.00146085 -0.000124929 0)
(-0.00106907 -0.00011342 0)
(-0.0007174 -9.83927e-05 0)
(-0.000415952 -7.98104e-05 0)
(-0.000174292 -5.77929e-05 0)
(-7.34649e-07 -3.28086e-05 0)
(9.88493e-05 -6.11038e-06 0)
(0.000123894 1.9311e-05 0)
(8.79466e-05 3.63473e-05 0)
(2.88694e-05 2.88028e-05 0)
(3.57688e-05 -8.6733e-05 0)
(7.83483e-05 -7.70149e-05 0)
(2.66049e-05 2.14889e-05 0)
(-0.000174711 0.000153812 0)
(-0.000547962 0.000293027 0)
(-0.00109319 0.000425329 0)
(-0.0017986 0.000543597 0)
(-0.00264568 0.000644419 0)
(-0.00361215 0.000726394 0)
(-0.00467395 0.000789231 0)
(-0.00580647 0.00083327 0)
(-0.00698533 0.000859218 0)
(-0.00818692 0.000868005 0)
(-0.00938873 0.000860698 0)
(-0.0105696 0.000838445 0)
(-0.0117097 0.000802438 0)
(-0.012791 0.000753891 0)
(-0.0137969 0.000694025 0)
(-0.0147126 0.000624064 0)
(-0.0155247 0.000545233 0)
(-0.0162219 0.000458761 0)
(-0.0167943 0.000365879 0)
(-0.0172338 0.000267832 0)
(-0.0175342 0.000165887 0)
(-0.017691 6.13309e-05 0)
(-0.0177016 -4.45131e-05 0)
(-0.0175651 -0.000150283 0)
(-0.0172828 -0.000254578 0)
(-0.0168577 -0.000355951 0)
(-0.0162952 -0.000452916 0)
(-0.0156024 -0.000543952 0)
(-0.0147887 -0.000627515 0)
(-0.0138657 -0.000702043 0)
(-0.012847 -0.000765975 0)
(-0.0117483 -0.000817774 0)
(-0.0105873 -0.000855952 0)
(-0.00938371 -0.000879093 0)
(-0.00815891 -0.000885889 0)
(-0.00693585 -0.00087518 0)
(-0.00573875 -0.000845997 0)
(-0.00459271 -0.000797626 0)
(-0.00352326 -0.000729697 0)
(-0.00255567 -0.000642324 0)
(-0.00171404 -0.000536349 0)
(-0.00101997 -0.000413785 0)
(-0.000490575 -0.000278696 0)
(-0.000135499 -0.000138842 0)
(4.81011e-05 -8.62635e-06 0)
(8.59111e-05 8.48432e-05 0)
(3.67305e-05 8.79659e-05 0)
(1.86414e-05 -0.000118957 0)
(-1.65163e-05 -2.66496e-05 0)
(-0.000227007 0.000233273 0)
(-0.000660148 0.000564586 0)
(-0.00133696 0.000914403 0)
(-0.00225743 0.00125119 0)
(-0.00340645 0.00155641 0)
(-0.00475919 0.00181976 0)
(-0.00628489 0.00203599 0)
(-0.00794943 0.00220297 0)
(-0.00971722 0.00232054 0)
(-0.0115524 0.00238982 0)
(-0.0134198 0.00241273 0)
(-0.0152856 0.00239175 0)
(-0.0171176 0.00232972 0)
(-0.0188857 0.00222968 0)
(-0.020562 0.00209485 0)
(-0.0221212 0.00192852 0)
(-0.0235401 0.00173404 0)
(-0.0247983 0.00151479 0)
(-0.0258781 0.00127419 0)
(-0.0267643 0.0010157 0)
(-0.0274444 0.000742831 0)
(-0.0279088 0.00045915 0)
(-0.0281504 0.000168296 0)
(-0.0281654 -0.000126006 0)
(-0.0279526 -0.000419928 0)
(-0.0275139 -0.00070954 0)
(-0.0268544 -0.000990807 0)
(-0.0259822 -0.0012596 0)
(-0.0249087 -0.00151172 0)
(-0.0236485 -0.00174291 0)
(-0.0222193 -0.0019489 0)
(-0.0206422 -0.00212546 0)
(-0.0189414 -0.00226846 0)
(-0.017144 -0.00237394 0)
(-0.0152799 -0.0024382 0)
(-0.0133816 -0.00245789 0)
(-0.0114838 -0.00243017 0)
(-0.00962258 -0.00235281 0)
(-0.00783532 -0.00222444 0)
(-0.00615943 -0.00204482 0)
(-0.00463145 -0.00181522 0)
(-0.00328558 -0.00153912 0)
(-0.00215171 -0.00122326 0)
(-0.00125278 -0.000879469 0)
(-0.000601093 -0.000527695 0)
(-0.00019311 -0.000200619 0)
(-3.37034e-06 4.84245e-05 0)
(2.08425e-05 0.000125484 0)
(-6.02629e-06 -9.0499e-05 0)
(-0.000145394 0.000170354 0)
(-0.000554276 0.000665071 0)
(-0.0012561 0.00126441 0)
(-0.00226183 0.00189119 0)
(-0.00356766 0.00249552 0)
(-0.00515407 0.0030458 0)
(-0.00699056 0.00352304 0)
(-0.00903955 0.00391656 0)
(-0.0112591 0.00422125 0)
(-0.0136051 0.00443573 0)
(-0.0160325 0.00456114 0)
(-0.0184969 0.00460041 0)
(-0.0209553 0.0045576 0)
(-0.0233663 0.00443765 0)
(-0.0256914 0.004246 0)
(-0.0278944 0.0039885 0)
(-0.0299425 0.00367125 0)
(-0.0318055 0.00330051 0)
(-0.0334571 0.00288267 0)
(-0.034874 0.00242422 0)
(-0.0360364 0.00193176 0)
(-0.0369281 0.00141198 0)
(-0.0375364 0.000871712 0)
(-0.0378525 0.000317922 0)
(-0.0378712 -0.000242257 0)
(-0.0375911 -0.000801519 0)
(-0.0370149 -0.00135237 0)
(-0.0361491 -0.00188714 0)
(-0.0350046 -0.002398 0)
(-0.0335961 -0.00287701 0)
(-0.0319427 -0.00331616 0)
(-0.0300676 -0.00370745 0)
(-0.0279981 -0.00404298 0)
(-0.0257654 -0.00431511 0)
(-0.0234046 -0.00451655 0)
(-0.0209542 -0.00464058 0)
(-0.0184559 -0.00468123 0)
(-0.0159537 -0.00463355 0)
(-0.0134937 -0.00449393 0)
(-0.0111229 -0.00426045 0)
(-0.00888825 -0.00393346 0)
(-0.00683513 -0.00351632 0)
(-0.00500567 -0.00301649 0)
(-0.00343652 -0.00244721 0)
(-0.00215608 -0.00183009 0)
(-0.00118068 -0.00119915 0)
(-0.000509981 -0.000606121 0)
(-0.000127537 -0.000129015 0)
(-2.7471e-06 0.000105218 0)
(-3.16172e-05 1.09659e-05 0)
(-0.000284074 0.000539133 0)
(-0.000909548 0.00134334 0)
(-0.00189931 0.00227229 0)
(-0.0032486 0.00322938 0)
(-0.00494644 0.00414856 0)
(-0.00696701 0.00498568 0)
(-0.00927359 0.00571271 0)
(-0.0118222 0.0063129 0)
(-0.0145642 0.00677748 0)
(-0.0174482 0.00710333 0)
(-0.0204217 0.00729131 0)
(-0.0234327 0.00734519 0)
(-0.0264305 0.00727072 0)
(-0.0293663 0.00707513 0)
(-0.0321942 0.00676664 0)
(-0.0348715 0.0063542 0)
(-0.0373586 0.00584724 0)
(-0.0396199 0.00525557 0)
(-0.0416237 0.00458922 0)
(-0.0433421 0.00385848 0)
(-0.0447514 0.0030738 0)
(-0.0458322 0.00224585 0)
(-0.0465694 0.00138547 0)
(-0.0469524 0.000503789 0)
(-0.0469749 -0.000387856 0)
(-0.0466354 -0.00127784 0)
(-0.0459372 -0.00215425 0)
(-0.0448881 -0.00300495 0)
(-0.0435011 -0.00381755 0)
(-0.041794 -0.00457952 0)
(-0.0397897 -0.00527826 0)
(-0.0375157 -0.00590122 0)
(-0.0350048 -0.00643608 0)
(-0.032294 -0.00687095 0)
(-0.0294252 -0.00719459 0)
(-0.0264439 -0.00739673 0)
(-0.0233993 -0.00746836 0)
(-0.0203437 -0.0074022 0)
(-0.017331 -0.00719317 0)
(-0.0144165 -0.00683898 0)
(-0.0116549 -0.00634099 0)
(-0.00909915 -0.00570524 0)
(-0.00679835 -0.00494398 0)
(-0.00479563 -0.00407775 0)
(-0.00312554 -0.00313848 0)
(-0.00181041 -0.0021739 0)
(-0.000856574 -0.00125292 0)
(-0.00026232 -0.000473668 0)
(-2.74838e-05 1.41806e-05 0)
(-5.58469e-05 0.000185738 0)
(-0.000421684 0.00108654 0)
(-0.00126897 0.00227949 0)
(-0.0025541 0.00360038 0)
(-0.00425345 0.00493847 0)
(-0.00634629 0.00621456 0)
(-0.00879867 0.00737353 0)
(-0.0115666 0.00837888 0)
(-0.0145995 0.00920786 0)
(-0.017842 0.00984788 0)
(-0.0212365 0.0102939 0)
(-0.0247238 0.0105463 0)
(-0.0282454 0.0106098 0)
(-0.0317439 0.0104917 0)
(-0.0351646 0.0102019 0)
(-0.0384552 0.00975164 0)
(-0.0415672 0.0091533 0)
(-0.0444559 0.00842013 0)
(-0.0470807 0.00756597 0)
(-0.0494054 0.00660511 0)
(-0.0513982 0.00555217 0)
(-0.0530323 0.00442211 0)
(-0.0542854 0.0032302 0)
(-0.0551404 0.00199201 0)
(-0.055585 0.000723448 0)
(-0.0556122 -0.000559198 0)
(-0.0552203 -0.00183928 0)
(-0.0544128 -0.00309977 0)
(-0.053199 -0.00432331 0)
(-0.0515934 -0.00549224 0)
(-0.0496164 -0.00658869 0)
(-0.0472938 -0.00759478 0)
(-0.0446572 -0.00849272 0)
(-0.0417435 -0.00926511 0)
(-0.038595 -0.00989521 0)
(-0.0352588 -0.0103673 0)
(-0.0317868 -0.010667 0)
(-0.0282345 -0.010782 0)
(-0.0246609 -0.0107025 0)
(-0.0211271 -0.0104218 0)
(-0.0176951 -0.0099373 0)
(-0.0144268 -0.00925153 0)
(-0.0113822 -0.00837351 0)
(-0.00861697 -0.00732054 0)
(-0.0061813 -0.00612056 0)
(-0.00411696 -0.0048154 0)
(-0.00245423 -0.00346519 0)
(-0.00120873 -0.00215327 0)
(-0.000396627 -0.000993072 0)
(-5.09945e-05 -0.000148241 0)
(-7.81374e-05 0.000430659 0)
(-0.000553934 0.00181127 0)
(-0.00162128 0.00347523 0)
(-0.0032021 0.00525202 0)
(-0.00525266 0.00702131 0)
(-0.00774077 0.00869398 0)
(-0.0106228 0.010206 0)
(-0.0138465 0.0115134 0)
(-0.0173538 0.0125883 0)
(-0.0210829 0.0134144 0)
(-0.0249696 0.0139849 0)
(-0.0289489 0.0143 0)
(-0.0329562 0.0143651 0)
(-0.0369285 0.0141897 0)
(-0.0408055 0.0137861 0)
(-0.0445298 0.013169 0)
(-0.048048 0.0123547 0)
(-0.0513107 0.0113605 0)
(-0.0542733 0.0102048 0)
(-0.0568958 0.00890656 0)
(-0.0591433 0.00748527 0)
(-0.0609859 0.00596089 0)
(-0.0623993 0.00435385 0)
(-0.0633642 0.00268499 0)
(-0.0638674 0.00097561 0)
(-0.0639008 -0.000752505 0)
(-0.0634627 -0.00247708 0)
(-0.0625568 -0.00417537 0)
(-0.0611931 -0.00582418 0)
(-0.0593878 -0.00739995 0)
(-0.057163 -0.00887889 0)
(-0.0545473 -0.0102372 0)
(-0.0515753 -0.0114513 0)
(-0.0482876 -0.012498 0)
(-0.0447306 -0.0133554 0)
(-0.0409564 -0.0140025 0)
(-0.0370218 -0.0144208 0)
(-0.0329881 -0.014594 0)
(-0.0289201 -0.0145095 0)
(-0.0248851 -0.0141589 0)
(-0.0209519 -0.0135391 0)
(-0.0171888 -0.0126539 0)
(-0.0136626 -0.011515 0)
(-0.0104363 -0.0101448 0)
(-0.00756766 -0.0085779 0)
(-0.00510689 -0.00686526 0)
(-0.0030938 -0.0050776 0)
(-0.00155507 -0.00330986 0)
(-0.000526025 -0.00168656 0)
(-7.26363e-05 -0.000379159 0)
(-9.85969e-05 0.000741888 0)
(-0.000679862 0.00270866 0)
(-0.00196256 0.00492749 0)
(-0.00383589 0.00722569 0)
(-0.00623595 0.009477 0)
(-0.00911809 0.0115852 0)
(-0.012428 0.0134795 0)
(-0.0161039 0.0151101 0)
(-0.0200799 0.0164446 0)
(-0.0242871 0.0174641 0)
(-0.0286548 0.0181603 0)
(-0.0331121 0.0185333 0)
(-0.0375888 0.0185898 0)
(-0.0420167 0.0183414 0)
(-0.0463306 0.0178035 0)
(-0.0504684 0.0169944 0)
(-0.0543726 0.0159345 0)
(-0.05799 0.0146457 0)
(-0.0612722 0.0131513 0)
(-0.0641762 0.0114753 0)
(-0.0666642 0.00964246 0)
(-0.0687041 0.00767823 0)
(-0.0702695 0.00560862 0)
(-0.0713396 0.0034602 0)
(-0.0718999 0.00126012 0)
(-0.0719419 -0.000963851 0)
(-0.0714632 -0.00318333 0)
(-0.0704679 -0.00536935 0)
(-0.0689666 -0.00749237 0)
(-0.0669764 -0.00952243 0)
(-0.0645211 -0.0114293 0)
(-0.0616313 -0.0131827 0)
(-0.0583441 -0.0147527 0)
(-0.0547033 -0.01611 0)
(-0.0507587 -0.0172267 0)
(-0.0465665 -0.0180765 0)
(-0.0421881 -0.0186357 0)
(-0.0376897 -0.0188842 0)
(-0.0331417 -0.0188059 0)
(-0.0286172 -0.0183905 0)
(-0.0241912 -0.0176341 0)
(-0.0199387 -0.0165412 0)
(-0.0159337 -0.0151262 0)
(-0.0122468 -0.0134157 0)
(-0.00894426 -0.0114504 0)
(-0.00608584 -0.00928908 0)
(-0.00372211 -0.00701117 0)
(-0.00189181 -0.00472072 0)
(-0.000649537 -0.00255014 0)
(-9.2491e-05 -0.000674935 0)
(-0.000117572 0.00111583 0)
(-0.000800062 0.00377323 0)
(-0.00229282 0.00663146 0)
(-0.00445444 0.00951803 0)
(-0.00720131 0.0123033 0)
(-0.0104759 0.0148866 0)
(-0.0142124 0.0171919 0)
(-0.0183389 0.0191656 0)
(-0.0227809 0.0207718 0)
(-0.0274619 0.0219897 0)
(-0.0323045 0.0228103 0)
(-0.0372317 0.0232344 0)
(-0.042168 0.0232701 0)
(-0.0470402 0.0229318 0)
(-0.0517784 0.0222381 0)
(-0.0563166 0.0212114 0)
(-0.0605934 0.0198765 0)
(-0.0645521 0.0182603 0)
(-0.0681416 0.0163913 0)
(-0.071316 0.0142988 0)
(-0.0740352 0.0120134 0)
(-0.076265 0.00956632 0)
(-0.0779774 0.00698949 0)
(-0.0791502 0.00431558 0)
(-0.0797679 0.00157798 0)
(-0.0798212 -0.0011892 0)
(-0.0793074 -0.00395106 0)
(-0.0782306 -0.00667201 0)
(-0.0766017 -0.00931576 0)
(-0.0744386 -0.0118455 0)
(-0.0717662 -0.0142241 0)
(-0.0686167 -0.0164144 0)
(-0.0650292 -0.0183796 0)
(-0.06105 -0.0200838 0)
(-0.0567321 -0.0214925 0)
(-0.0521351 -0.0225735 0)
(-0.0473244 -0.023298 0)
(-0.0423711 -0.0236408 0)
(-0.0373505 -0.0235824 0)
(-0.0323415 -0.0231099 0)
(-0.0274253 -0.022218 0)
(-0.0226841 -0.0209117 0)
(-0.0181991 -0.0192072 0)
(-0.0140495 -0.0171344 0)
(-0.0103108 -0.0147394 0)
(-0.00705319 -0.0120872 0)
(-0.00433893 -0.00926453 0)
(-0.00221934 -0.00638246 0)
(-0.000767871 -0.00357912 0)
(-0.000110911 -0.0010322 0)
(-0.00013546 0.00154957 0)
(-0.00091579 0.00500001 0)
(-0.00261409 0.00858242 0)
(-0.00506025 0.0121256 0)
(-0.00815164 0.0154983 0)
(-0.0118177 0.0185969 0)
(-0.0159806 0.0213426 0)
(-0.0205579 0.0236788 0)
(-0.0254656 0.0255679 0)
(-0.0306193 0.026988 0)
(-0.0359345 0.0279304 0)
(-0.041328 0.0283971 0)
(-0.0467188 0.0283985 0)
(-0.052029 0.027952 0)
(-0.0571842 0.0270802 0)
(-0.0621147 0.0258097 0)
(-0.0667556 0.0241703 0)
(-0.0710475 0.0221942 0)
(-0.0749364 0.0199154 0)
(-0.0783742 0.017369 0)
(-0.0813187 0.0145917 0)
(-0.0837342 0.0116206 0)
(-0.0855911 0.00849395 0)
(-0.086866 0.00525086 0)
(-0.0875425 0.00193119 0)
(-0.0876106 -0.00142429 0)
(-0.0870671 -0.00477389 0)
(-0.0859159 -0.00807506 0)
(-0.084168 -0.0112844 0)
(-0.0818418 -0.014358 0)
(-0.078963 -0.0172513 0)
(-0.0755647 -0.0199199 0)
(-0.0716879 -0.0223196 0)
(-0.0673808 -0.0244074 0)
(-0.062699 -0.0261419 0)
(-0.0577052 -0.0274844 0)
(-0.0524687 -0.0284 0)
(-0.0470647 -0.0288585 0)
(-0.0415736 -0.0288359 0)
(-0.0360802 -0.0283159 0)
(-0.0306721 -0.0272918 0)
(-0.0254386 -0.0257677 0)
(-0.0204693 -0.0237609 0)
(-0.0158524 -0.0213041 0)
(-0.0116732 -0.0184474 0)
(-0.00801364 -0.0152607 0)
(-0.00494792 -0.0118367 0)
(-0.00254027 -0.00829217 0)
(-0.000882485 -0.00476959 0)
(-0.000128322 -0.00144834 0)
(-0.000152632 0.00204104 0)
(-0.00102852 0.00638532 0)
(-0.00292932 0.0107768 0)
(-0.00565767 0.0150458 0)
(-0.00909255 0.0190606 0)
(-0.0131504 0.0227162 0)
(-0.017741 0.0259322 0)
(-0.0227708 0.0286507 0)
(-0.0281461 0.0308334 0)
(-0.0337739 0.0324588 0)
(-0.0395623 0.0335193 0)
(-0.0454217 0.034019 0)
(-0.0512655 0.0339713 0)
(-0.0570109 0.0333974 0)
(-0.0625795 0.0323241 0)
(-0.067898 0.0307831 0)
(-0.0728984 0.0288096 0)
(-0.0775185 0.0264413 0)
(-0.0817021 0.0237181 0)
(-0.0853992 0.0206813 0)
(-0.088566 0.0173736 0)
(-0.0911652 0.0138388 0)
(-0.0931659 0.0101214 0)
(-0.0945439 0.00626716 0)
(-0.0952816 0.00232261 0)
(-0.0953685 -0.00166458 0)
(-0.0948007 -0.00564571 0)
(-0.0935819 -0.00957105 0)
(-0.0917229 -0.0133899 0)
(-0.0892421 -0.0170507 0)
(-0.0861657 -0.0205013 0)
(-0.0825276 -0.0236896 0)
(-0.0783698 -0.0265637 0)
(-0.0737422 -0.0290729 0)
(-0.0687027 -0.0311683 0)
(-0.0633166 -0.0328041 0)
(-0.0576567 -0.0339388 0)
(-0.0518025 -0.0345362 0)
(-0.0458394 -0.0345672 0)
(-0.0398579 -0.0340117 0)
(-0.0339525 -0.0328599 0)
(-0.0282202 -0.0311147 0)
(-0.0227593 -0.0287936 0)
(-0.0176676 -0.0259306 0)
(-0.0130416 -0.0225788 0)
(-0.00897498 -0.0188124 0)
(-0.0055548 -0.0147285 0)
(-0.0028583 -0.0104486 0)
(-0.000995131 -0.00611925 0)
(-0.000145143 -0.0019217 0)
(-0.000169422 0.002589 0)
(-0.00113975 0.00792701 0)
(-0.00324178 0.0132128 0)
(-0.00625187 0.0182779 0)
(-0.010031 0.0229908 0)
(-0.0144825 0.0272461 0)
(-0.0195039 0.0309631 0)
(-0.0249897 0.034084 0)
(-0.0308363 0.0365711 0)
(-0.0369415 0.0384043 0)
(-0.0432058 0.0395784 0)
(-0.0495328 0.0401005 0)
(-0.0558304 0.0399879 0)
(-0.0620108 0.0392662 0)
(-0.0679916 0.0379675 0)
(-0.0736962 0.0361287 0)
(-0.0790536 0.033791 0)
(-0.0839994 0.0309982 0)
(-0.0884753 0.0277963 0)
(-0.0924296 0.0242331 0)
(-0.0958173 0.0203578 0)
(-0.0985997 0.0162206 0)
(-0.100745 0.0118728 0)
(-0.102228 0.0073667 0)
(-0.10303 0.00275586 0)
(-0.10314 -0.00190512 0)
(-0.102554 -0.0065604 0)
(-0.101274 -0.0111529 0)
(-0.0993118 -0.0156243 0)
(-0.0966843 -0.0199153 0)
(-0.0934183 -0.0239659 0)
(-0.089548 -0.0277159 0)
(-0.0851161 -0.0311051 0)
(-0.0801738 -0.0340747 0)
(-0.0747807 -0.0365677 0)
(-0.0690047 -0.0385306 0)
(-0.0629217 -0.0399143 0)
(-0.0566152 -0.040676 0)
(-0.0501758 -0.0407807 0)
(-0.0437 -0.0402031 0)
(-0.0372892 -0.0389298 0)
(-0.0310487 -0.0369612 0)
(-0.0250861 -0.0343137 0)
(-0.0195099 -0.0310219 0)
(-0.0144279 -0.0271408 0)
(-0.00994664 -0.0227474 0)
(-0.00616636 -0.0179429 0)
(-0.0031776 -0.0128529 0)
(-0.00110763 -0.00762771 0)
(-0.000161765 -0.00245163 0)
(-0.000186128 0.003193 0)
(-0.0012509 0.00962455 0)
(-0.00355476 0.0158905 0)
(-0.00684817 0.021823 0)
(-0.0109743 0.0272912 0)
(-0.0158234 0.03219 0)
(-0.0212801 0.0364395 0)
(-0.0272272 0.0399832 0)
(-0.0335501 0.0427853 0)
(-0.0401375 0.0448285 0)
(-0.0468818 0.0461108 0)
(-0.0536797 0.0466438 0)
(-0.0604332 0.0464495 0)
(-0.0670497 0.0455588 0)
(-0.073443 0.0440097 0)
(-0.079533 0.0418453 0)
(-0.0852462 0.039113 0)
(-0.0905162 0.0358631 0)
(-0.095283 0.0321485 0)
(-0.0994935 0.0280235 0)
(-0.103102 0.0235438 0)
(-0.106068 0.0187666 0)
(-0.108359 0.0137497 0)
(-0.109949 0.00855248 0)
(-0.11082 0.00323515 0)
(-0.110959 -0.00214055 0)
(-0.11036 -0.00751156 0)
(-0.109027 -0.0128133 0)
(-0.106968 -0.01798 0)
(-0.104202 -0.0229441 0)
(-0.100754 -0.0276377 0)
(-0.0966593 -0.0319918 0)
(-0.0919599 -0.035938 0)
(-0.0867081 -0.0394084 0)
(-0.0809648 -0.0423376 0)
(-0.0748002 -0.0446634 0)
(-0.0682931 -0.0463285 0)
(-0.061531 -0.0472823 0)
(-0.0546094 -0.0474827 0)
(-0.0476311 -0.0468986 0)
(-0.0407049 -0.0455114 0)
(-0.0339448 -0.043318 0)
(-0.0274683 -0.0403325 0)
(-0.0213949 -0.036589 0)
(-0.0158452 -0.032143 0)
(-0.0109387 -0.0270739 0)
(-0.00678975 -0.0214859 0)
(-0.00350242 -0.0155086 0)
(-0.00122178 -0.00929673 0)
(-0.000178545 -0.00303847 0)
(-0.000203003 0.00385335 0)
(-0.00136326 0.011479 0)
(-0.00387136 0.0188119 0)
(-0.00745178 0.0256844 0)
(-0.0119297 0.031966 0)
(-0.0171822 0.037553 0)
(-0.0230806 0.042367 0)
(-0.0294954 0.0463541 0)
(-0.036301 0.0494816 0)
(-0.0433765 0.0517362 0)
(-0.0506056 0.0531208 0)
(-0.0578782 0.0536521 0)
(-0.0650903 0.0533581 0)
(-0.0721445 0.0522762 0)
(-0.0789506 0.0504508 0)
(-0.0854255 0.0479322 0)
(-0.0914936 0.0447744 0)
(-0.0970864 0.0410351 0)
(-0.102143 0.0367738 0)
(-0.106608 0.0320518 0)
(-0.110437 0.026932 0)
(-0.113587 0.021478 0)
(-0.116026 0.0157547 0)
(-0.117727 0.00982799 0)
(-0.11867 0.00376521 0)
(-0.118843 -0.002365 0)
(-0.118238 -0.00849235 0)
(-0.116859 -0.0145449 0)
(-0.114713 -0.0204488 0)
(-0.111817 -0.026129 0)
(-0.108196 -0.0315087 0)
(-0.103885 -0.0365103 0)
(-0.0989249 -0.0410564 0)
(-0.0933693 -0.0450698 0)
(-0.0872798 -0.0484758 0)
(-0.0807281 -0.0512025 0)
(-0.073796 -0.0531837 0)
(-0.0665746 -0.0543599 0)
(-0.0591645 -0.0546809 0)
(-0.0516747 -0.0541079 0)
(-0.0442217 -0.0526164 0)
(-0.0369288 -0.0501981 0)
(-0.0299239 -0.0468637 0)
(-0.0233386 -0.0426453 0)
(-0.0173065 -0.0375981 0)
(-0.0119614 -0.0318028 0)
(-0.00743212 -0.0253664 0)
(-0.00383696 -0.0184224 0)
(-0.00133928 -0.0111301 0)
(-0.000195807 -0.00368345 0)
(-0.000220267 0.00457096 0)
(-0.00147801 0.0134929 0)
(-0.00419446 0.021981 0)
(-0.00806753 0.0298672 0)
(-0.0129041 0.0370216 0)
(-0.0185675 0.043342 0)
(-0.0249154 0.0487529 0)
(-0.0318057 0.0532037 0)
(-0.0391013 0.0566665 0)
(-0.0466709 0.0591332 0)
(-0.0543901 0.0606128 0)
(-0.062141 0.0611286 0)
(-0.0698139 0.0607159 0)
(-0.0773067 0.0594192 0)
(-0.0845253 0.0572909 0)
(-0.091384 0.0543885 0)
(-0.097805 0.050774 0)
(-0.103718 0.0465124 0)
(-0.109062 0.0416707 0)
(-0.113781 0.0363174 0)
(-0.117828 0.0305223 0)
(-0.121163 0.0243559 0)
(-0.123751 0.0178898 0)
(-0.125565 0.0111969 0)
(-0.126585 0.00435106 0)
(-0.126798 -0.0025721 0)
(-0.126195 -0.00949523 0)
(-0.124778 -0.016339 0)
(-0.122554 -0.0230219 0)
(-0.119538 -0.0294606 0)
(-0.115755 -0.0355699 0)
(-0.111236 -0.0412632 0)
(-0.106025 -0.0464533 0)
(-0.100173 -0.0510536 0)
(-0.0937428 -0.0549789 0)
(-0.0868071 -0.0581474 0)
(-0.0794501 -0.0604822 0)
(-0.0717666 -0.061914 0)
(-0.0638619 -0.062383 0)
(-0.0558514 -0.0618417 0)
(-0.0478599 -0.0602576 0)
(-0.0400198 -0.0576161 0)
(-0.0324706 -0.0539229 0)
(-0.0253564 -0.0492067 0)
(-0.0188248 -0.0435215 0)
(-0.0130247 -0.0369483 0)
(-0.00810042 -0.0295964 0)
(-0.00418523 -0.0216033 0)
(-0.00146174 -0.0131338 0)
(-0.000213845 -0.00438869 0)
(-0.00023811 0.00534736 0)
(-0.00159618 0.0156702 0)
(-0.00452664 0.0254037 0)
(-0.00869988 0.0343787 0)
(-0.0139037 0.042466 0)
(-0.0199871 0.0495656 0)
(-0.0267938 0.0556055 0)
(-0.0341681 0.06054 0)
(-0.0419611 0.0643469 0)
(-0.0500312 0.0670251 0)
(-0.0582448 0.068591 0)
(-0.066477 0.0690761 0)
(-0.0746117 0.0685239 0)
(-0.0825423 0.0669877 0)
(-0.0901714 0.0645283 0)
(-0.0974107 0.061212 0)
(-0.104181 0.057109 0)
(-0.110411 0.0522923 0)
(-0.116038 0.0468367 0)
(-0.121007 0.0408182 0)
(-0.12527 0.0343137 0)
(-0.128788 0.0274005 0)
(-0.131525 0.0201571 0)
(-0.133455 0.0126627 0)
(-0.134557 0.00499793 0)
(-0.134815 -0.00275501 0)
(-0.134222 -0.0105119 0)
(-0.132777 -0.0181861 0)
(-0.130486 -0.0256887 0)
(-0.127362 -0.0329281 0)
(-0.123429 -0.0398104 0)
(-0.118716 -0.04624 0)
(-0.113264 -0.0521197 0)
(-0.107126 -0.0573523 0)
(-0.100363 -0.061842 0)
(-0.0930482 -0.0654954 0)
(-0.0852688 -0.0682245 0)
(-0.0771221 -0.0699484 0)
(-0.0687182 -0.0705963 0)
(-0.060179 -0.0701102 0)
(-0.0516371 -0.0684483 0)
(-0.0432354 -0.0655876 0)
(-0.0351247 -0.0615274 0)
(-0.0274628 -0.0562915 0)
(-0.0204122 -0.0499313 0)
(-0.0141381 -0.0425273 0)
(-0.00880125 -0.0341908 0)
(-0.00455106 -0.0250632 0)
(-0.00159067 -0.0153155 0)
(-0.000232928 -0.00515712 0)
(-0.0002567 0.00618455 0)
(-0.00171872 0.0180159 0)
(-0.00487025 0.0290873 0)
(-0.00935278 0.0392278 0)
(-0.0149341 0.0483089 0)
(-0.021448 0.0562335 0)
(-0.0287235 0.0629342 0)
(-0.036591 0.0683711 0)
(-0.0448889 0.0725297 0)
(-0.0534648 0.075417 0)
(-0.0621762 0.0770586 0)
(-0.0708905 0.0774956 0)
(-0.0794859 0.0767813 0)
(-0.0878513 0.0749791 0)
(-0.095886 0.0721593 0)
(-0.1035 0.0683978 0)
(-0.110612 0.063774 0)
(-0.117151 0.0583694 0)
(-0.123055 0.052267 0)
(-0.128268 0.0455504 0)
(-0.132743 0.0383036 0)
(-0.136441 0.030611 0)
(-0.139327 0.0225574 0)
(-0.141374 0.0142284 0)
(-0.14256 0.00571098 0)
(-0.142871 -0.00290641 0)
(-0.142296 -0.0115329 0)
(-0.140834 -0.0200752 0)
(-0.138489 -0.0284368 0)
(-0.135271 -0.0365181 0)
(-0.131202 -0.0442168 0)
(-0.12631 -0.0514275 0)
(-0.120633 -0.0580431 0)
(-0.114222 -0.0639554 0)
(-0.107138 -0.0690566 0)
(-0.0994541 -0.0732412 0)
(-0.0912581 -0.0764086 0)
(-0.0826503 -0.0784648 0)
(-0.0737452 -0.0793263 0)
(-0.0646709 -0.078923 0)
(-0.0555683 -0.0772016 0)
(-0.0465904 -0.0741289 0)
(-0.0379007 -0.0696957 0)
(-0.0296711 -0.0639196 0)
(-0.0220802 -0.0568478 0)
(-0.0153105 -0.0485595 0)
(-0.00954088 -0.0391671 0)
(-0.00493806 -0.0288163 0)
(-0.00172748 -0.0176849 0)
(-0.000253312 -0.00599242 0)
(-0.00027619 0.00708501 0)
(-0.00184645 0.0205364 0)
(-0.00522739 0.0330407 0)
(-0.0100298 0.0444248 0)
(-0.0160002 0.0545614 0)
(-0.0229563 0.0633566 0)
(-0.0307113 0.0707487 0)
(-0.0390808 0.0767054 0)
(-0.0478904 0.081221 0)
(-0.0569763 0.0843126 0)
(-0.0661867 0.0860168 0)
(-0.0753815 0.0863859 0)
(-0.0844332 0.0854847 0)
(-0.0932265 0.0833879 0)
(-0.101658 0.0801768 0)
(-0.109636 0.0759379 0)
(-0.117079 0.0707604 0)
(-0.123917 0.064735 0)
(-0.130086 0.0579534 0)
(-0.135533 0.0505069 0)
(-0.140213 0.0424868 0)
(-0.144085 0.0339842 0)
(-0.147116 0.0250901 0)
(-0.14928 0.0158962 0)
(-0.150554 0.00649513 0)
(-0.150923 -0.00301862 0)
(-0.150377 -0.0125482 0)
(-0.14891 -0.0219936 0)
(-0.146525 -0.0312515 0)
(-0.143231 -0.0402147 0)
(-0.139045 -0.048772 0)
(-0.133993 -0.0568088 0)
(-0.128111 -0.0642073 0)
(-0.121446 -0.0708478 0)
(-0.114057 -0.0766101 0)
(-0.106018 -0.0813753 0)
(-0.0974158 -0.0850285 0)
(-0.0883534 -0.0874614 0)
(-0.0789488 -0.0885759 0)
(-0.0693361 -0.0882875 0)
(-0.0596644 -0.0865292 0)
(-0.0500973 -0.0832556 0)
(-0.0408111 -0.078447 0)
(-0.0319932 -0.0721124 0)
(-0.0238391 -0.0642936 0)
(-0.0165504 -0.0550669 0)
(-0.0103252 -0.0445455 0)
(-0.00534965 -0.0328793 0)
(-0.00187354 -0.0202534 0)
(-0.000275235 -0.006899 0)
(-0.000296714 0.00805164 0)
(-0.00198015 0.0232387 0)
(-0.00559999 0.0372739 0)
(-0.0107343 0.0499815 0)
(-0.0171064 0.0612355 0)
(-0.024517 0.0709463 0)
(-0.0327624 0.0790589 0)
(-0.0416425 0.0855503 0)
(-0.0509691 0.0904254 0)
(-0.060567 0.0937135 0)
(-0.0702746 0.0954639 0)
(-0.0799446 0.0957422 0)
(-0.089444 0.0946264 0)
(-0.0986537 0.0922041 0)
(-0.107468 0.088569 0)
(-0.115795 0.0838192 0)
(-0.123553 0.0780547 0)
(-0.130672 0.071376 0)
(-0.137092 0.0638837 0)
(-0.142759 0.0556772 0)
(-0.147631 0.0468549 0)
(-0.151668 0.0375144 0)
(-0.154839 0.0277526 0)
(-0.157117 0.0176667 0)
(-0.158481 0.00735469 0)
(-0.158915 -0.0030837 0)
(-0.158406 -0.0135461 0)
(-0.156949 -0.0239267 0)
(-0.154542 -0.0341155 0)
(-0.151192 -0.0439981 0)
(-0.146912 -0.053455 0)
(-0.141724 -0.062362 0)
(-0.135661 -0.0705906 0)
(-0.128766 -0.0780093 0)
(-0.121096 -0.0844843 0)
(-0.112722 -0.0898825 0)
(-0.10373 -0.0940732 0)
(-0.0942255 -0.096932 0)
(-0.0843283 -0.0983439 0)
(-0.0741781 -0.0982078 0)
(-0.0639323 -0.0964408 0)
(-0.0537651 -0.0929826 0)
(-0.0438664 -0.0878002 0)
(-0.0344394 -0.0808922 0)
(-0.0256984 -0.0722926 0)
(-0.0178654 -0.0620737 0)
(-0.0111598 -0.0503486 0)
(-0.00578909 -0.037271 0)
(-0.00203015 -0.023034 0)
(-0.000298932 -0.00788193 0)
(-0.000318407 0.00908771 0)
(-0.00212056 0.026131 0)
(-0.00598987 0.0417982 0)
(-0.0114691 0.0559108 0)
(-0.0182568 0.0683443 0)
(-0.0261347 0.0790144 0)
(-0.034881 0.0878744 0)
(-0.044279 0.0949122 0)
(-0.054126 0.100146 0)
(-0.0642347 0.103618 0)
(-0.074434 0.105395 0)
(-0.0845692 0.105555 0)
(-0.0945021 0.104194 0)
(-0.104111 0.101412 0)
(-0.113288 0.0973184 0)
(-0.121942 0.0920229 0)
(-0.129992 0.0856376 0)
(-0.13737 0.0782735 0)
(-0.144018 0.0700404 0)
(-0.149885 0.0610457 0)
(-0.154931 0.0513951 0)
(-0.15912 0.0411922 0)
(-0.162421 0.0305395 0)
(-0.164809 0.0195389 0)
(-0.166263 0.00829309 0)
(-0.166767 -0.00309363 0)
(-0.166307 -0.0145142 0)
(-0.164874 -0.0258577 0)
(-0.162465 -0.0370083 0)
(-0.159083 -0.0478447 0)
(-0.154737 -0.0582396 0)
(-0.149444 -0.0680596 0)
(-0.143231 -0.0771654 0)
(-0.136138 -0.0854128 0)
(-0.128217 -0.0926543 0)
(-0.119536 -0.0987408 0)
(-0.11018 -0.103525 0)
(-0.100252 -0.106864 0)
(-0.0898751 -0.108624 0)
(-0.0791944 -0.108684 0)
(-0.0683742 -0.106943 0)
(-0.0575996 -0.103322 0)
(-0.0470742 -0.0977731 0)
(-0.0370185 -0.090281 0)
(-0.0276665 -0.0808698 0)
(-0.0192626 -0.0696059 0)
(-0.0120499 -0.056601 0)
(-0.00625956 -0.0420123 0)
(-0.00219857 -0.0260414 0)
(-0.000324633 -0.00894695 0)
(-0.000341402 0.0101969 0)
(-0.00226842 0.0292223 0)
(-0.00639882 0.0466261 0)
(-0.0122372 0.0622266 0)
(-0.0194548 0.0759013 0)
(-0.027813 0.0875725 0)
(-0.0370701 0.0972035 0)
(-0.0469916 0.104795 0)
(-0.0573595 0.110381 0)
(-0.0679741 0.114022 0)
(-0.0786543 0.115798 0)
(-0.0892385 0.11581 0)
(-0.0995841 0.114168 0)
(-0.109567 0.11099 0)
(-0.119079 0.1064 0)
(-0.128029 0.100523 0)
(-0.13634 0.0934827 0)
(-0.143947 0.0854017 0)
(-0.150794 0.0763992 0)
(-0.156835 0.066591 0)
(-0.162033 0.0560895 0)
(-0.166354 0.045004 0)
(-0.169771 0.0334419 0)
(-0.172261 0.0215092 0)
(-0.173803 0.00931247 0)
(-0.174381 -0.00304055 0)
(-0.17398 -0.015439 0)
(-0.172589 -0.0277677 0)
(-0.170202 -0.0399059 0)
(-0.166817 -0.0517264 0)
(-0.162437 -0.0630945 0)
(-0.157075 -0.0738678 0)
(-0.150751 -0.0838963 0)
(-0.1435 -0.0930233 0)
(-0.135368 -0.101086 0)
(-0.126417 -0.10792 0)
(-0.116729 -0.113358 0)
(-0.106406 -0.117237 0)
(-0.0955725 -0.119401 0)
(-0.0843755 -0.119709 0)
(-0.0729869 -0.118036 0)
(-0.0616023 -0.114283 0)
(-0.0504397 -0.108382 0)
(-0.0397373 -0.100301 0)
(-0.0297508 -0.0900509 0)
(-0.0207487 -0.0776908 0)
(-0.0130006 -0.0633292 0)
(-0.00676414 -0.047126 0)
(-0.0023801 -0.0292917 0)
(-0.000352577 -0.0101005 0)
(-0.000365844 0.0113831 0)
(-0.00242451 0.0325225 0)
(-0.00682873 0.0517711 0)
(-0.0130415 0.0689435 0)
(-0.0207042 0.0839204 0)
(-0.0295555 0.0966318 0)
(-0.0393321 0.107053 0)
(-0.0497803 0.115202 0)
(-0.0606658 0.121128 0)
(-0.071776 0.124913 0)
(-0.0829201 0.126659 0)
(-0.0939299 0.126485 0)
(-0.104659 0.124522 0)
(-0.114982 0.120907 0)
(-0.124791 0.115781 0)
(-0.133999 0.109284 0)
(-0.142531 0.101555 0)
(-0.150325 0.0927265 0)
(-0.157333 0.0829285 0)
(-0.163514 0.0722846 0)
(-0.168832 0.0609139 0)
(-0.173261 0.0489308 0)
(-0.176776 0.0364468 0)
(-0.179356 0.0235713 0)
(-0.180982 0.0104132 0)
(-0.181637 -0.00291701 0)
(-0.181306 -0.0163059 0)
(-0.179976 -0.0296354 0)
(-0.177636 -0.0427808 0)
(-0.17428 -0.0556099 0)
(-0.169906 -0.0679815 0)
(-0.164519 -0.0797449 0)
(-0.158132 -0.0907398 0)
(-0.150772 -0.100797 0)
(-0.142478 -0.109738 0)
(-0.133305 -0.117379 0)
(-0.123331 -0.123536 0)
(-0.112652 -0.128021 0)
(-0.101394 -0.130655 0)
(-0.089704 -0.13127 0)
(-0.0777612 -0.129716 0)
(-0.0657706 -0.12587 0)
(-0.0539649 -0.119639 0)
(-0.042601 -0.110971 0)
(-0.0319575 -0.0998611 0)
(-0.0223299 -0.0863567 0)
(-0.0140169 -0.0705613 0)
(-0.00730597 -0.052637 0)
(-0.00257603 -0.0328027 0)
(-0.000383016 -0.0113496 0)
(-0.000391901 0.012651 0)
(-0.00258971 0.0360426 0)
(-0.00728168 0.0572476 0)
(-0.0138852 0.0760772 0)
(-0.0220087 0.0924157 0)
(-0.0313654 0.106203 0)
(-0.0416686 0.117429 0)
(-0.0526434 0.126129 0)
(-0.0640385 0.132377 0)
(-0.0756278 0.136276 0)
(-0.0872111 0.137952 0)
(-0.098614 0.137549 0)
(-0.109687 0.13522 0)
(-0.120305 0.131122 0)
(-0.130364 0.125418 0)
(-0.139778 0.118262 0)
(-0.148479 0.109809 0)
(-0.156412 0.100204 0)
(-0.163533 0.0895873 0)
(-0.169808 0.0780899 0)
(-0.175209 0.0658369 0)
(-0.179713 0.0529476 0)
(-0.183301 0.0395364 0)
(-0.185953 0.0257148 0)
(-0.187655 0.0115934 0)
(-0.188389 -0.00271636 0)
(-0.188139 -0.0170998 0)
(-0.186889 -0.0314372 0)