/*--------------------------------*- C++ -*----------------------------------*\
| =========                 |                                                 |
| \\      /  F ield         | OpenFOAM: The Open Source CFD Toolbox           |
|  \\    /   O peration     | Version:  v2012                                 |
|   \\  /    A nd           | Website:  www.openfoam.com                      |
|    \\/     M anipulation  |                                                 |
\*---------------------------------------------------------------------------*/
FoamFile
{
    version     2.0;
    format      ascii;
    class       volVectorField;
    location    "0.5";
    object      U;
}
// * * * * * * * * * * * * * * * * * * * * * * * * * * * * * * * * * * * * * //

dimensions      [0 1 -1 0 0 0 0];


internalField   nonuniform List<vector> 
1250
(
(3.26633e-05 -3.28284e-05 0)
(9.87662e-05 -4.07326e-05 0)
(0.000137328 -2.09866e-05 0)
(0.000106256 7.8543e-06 0)
(-8.73025e-06 3.77391e-05 0)
(-0.000206074 6.5362e-05 0)
(-0.000478433 8.9411e-05 0)
(-0.000815985 0.000109473 0)
(-0.00120778 0.000125524 0)
(-0.00164256 0.000137703 0)
(-0.00210914 0.000146214 0)
(-0.00259674 0.000151289 0)
(-0.00309506 0.00015317 0)
(-0.00359439 0.000152097 0)
(-0.00408566 0.00014831 0)
(-0.00456048 0.000142042 0)
(-0.00501114 0.000133523 0)
(-0.00543063 0.000122976 0)
(-0.00581263 0.000110621 0)
(-0.00615155 9.66754e-05 0)
(-0.0064425 8.13565e-05 0)
(-0.0066813 6.48817e-05 0)
(-0.00686452 4.74711e-05 0)
(-0.00698946 2.9349e-05 0)
(-0.00705419 1.07455e-05 0)
(4.10768e-05 -9.92581e-05 0)
(9.39111e-05 -9.30487e-05 0)
(4.54752e-05 1.44715e-05 0)
(-0.000168791 0.000161863 0)
(-0.000575858 0.000318395 0)
(-0.00117707 0.000468054 0)
(-0.00196006 0.000602513 0)
(-0.00290458 0.000717708 0)
(-0.00398594 0.000811899 0)
(-0.00517724 0.000884623 0)
(-0.00645078 0.000936155 0)
(-0.00777903 0.000967206 0)
(-0.00913518 0.000978754 0)
(-0.0104936 0.000971941 0)
(-0.01183 0.00094801 0)
(-0.0131217 0.000908266 0)
(-0.0143479 0.000854049 0)
(-0.0154893 0.000786724 0)
(-0.0165287 0.000707671 0)
(-0.0174508 0.000618285 0)
(-0.0182421 0.000519978 0)
(-0.0188911 0.000414183 0)
(-0.0193885 0.000302357 0)
(-0.019727 0.000185991 0)
(-0.0199013 6.66139e-05 0)
(2.24922e-05 -0.00013934 0)
(-1.00567e-05 -4.58156e-05 0)
(-0.00023415 0.000239622 0)
(-0.000706125 0.000609371 0)
(-0.00145181 0.001003 0)
(-0.00247274 0.00138414 0)
(-0.00375312 0.00173126 0)
(-0.00526584 0.00203225 0)
(-0.00697681 0.00228075 0)
(-0.00884791 0.00247403 0)
(-0.0108391 0.0026116 0)
(-0.0129098 0.00269447 0)
(-0.0150202 0.00272461 0)
(-0.0171315 0.00270463 0)
(-0.0192071 0.0026376 0)
(-0.0212123 0.00252685 0)
(-0.0231149 0.00237592 0)
(-0.0248856 0.00218849 0)
(-0.0264975 0.00196834 0)
(-0.0279271 0.00171934 0)
(-0.0291533 0.00144542 0)
(-0.0301587 0.00115062 0)
(-0.0309285 0.000839032 0)
(-0.0314517 0.000514871 0)
(-0.03172 0.000182447 0)
(-4.90851e-06 -0.000112335 0)
(-0.000153918 0.000164525 0)
(-0.000600265 0.000710439 0)
(-0.00137372 0.00138032 0)
(-0.00248898 0.00208602 0)
(-0.00394341 0.00277017 0)
(-0.00571638 0.00339614 0)
(-0.00777451 0.00394164 0)
(-0.0100762 0.00439391 0)
(-0.0125745 0.00474658 0)
(-0.0152198 0.00499752 0)
(-0.0179612 0.00514758 0)
(-0.0207484 0.00519963 0)
(-0.0235321 0.00515794 0)
(-0.0262653 0.00502778 0)
(-0.0289033 0.00481512 0)
(-0.0314047 0.00452641 0)
(-0.0337313 0.00416845 0)
(-0.0358484 0.00374834 0)
(-0.037725 0.00327336 0)
(-0.0393341 0.002751 0)
(-0.0406527 0.00218894 0)
(-0.0416619 0.00159503 0)
(-0.0423469 0.000977319 0)
(-0.0426976 0.000344056 0)
(-3.37011e-05 -3.3467e-06 0)
(-0.000310134 0.000567956 0)
(-0.00100058 0.00145865 0)
(-0.00209863 0.00249825 0)
(-0.00360126 0.0035764 0)
(-0.00549779 0.00461716 0)
(-0.00776054 0.00556942 0)
(-0.0103492 0.00640037 0)
(-0.0132151 0.00709008 0)
(-0.0163037 0.00762771 0)
(-0.0195573 0.00800891 0)
(-0.0229166 0.00823396 0)
(-0.0263227 0.00830642 0)
(-0.0297175 0.00823229 0)
(-0.0330455 0.00801927 0)
(-0.0362538 0.00767631 0)
(-0.0392932 0.00721329 0)
(-0.0421179 0.00664076 0)
(-0.0446867 0.00596979 0)
(-0.0469627 0.00521188 0)
(-0.0489133 0.00437888 0)
(-0.0505111 0.00348295 0)
(-0.0517334 0.0025366 0)
(-0.0525627 0.00155264 0)
(-0.0529868 0.000544214 0)
(-6.11756e-05 0.000188495 0)
(-0.000465913 0.00117314 0)
(-0.00140701 0.00249802 0)
(-0.00283854 0.00397763 0)
(-0.00473609 0.00548535 0)
(-0.007078 0.00693013 0)
(-0.00982746 0.00824821 0)
(-0.012936 0.00939688 0)
(-0.0163475 0.0103491 0)
(-0.0200003 0.0110895 0)
(-0.0238294 0.0116112 0)
(-0.0277681 0.0119137 0)
(-0.0317501 0.0120012 0)
(-0.0357102 0.0118814 0)
(-0.0395854 0.0115647 0)
(-0.0433162 0.0110633 0)
(-0.0468465 0.010391 0)
(-0.0501248 0.00956247 0)
(-0.0531039 0.00859345 0)
(-0.0557418 0.00750024 0)
(-0.0580017 0.00629972 0)
(-0.0598522 0.00500931 0)
(-0.0612676 0.0036469 0)
(-0.062228 0.00223086 0)
(-0.0627192 0.000780017 0)
(-8.65468e-05 0.000459921 0)
(-0.000615843 0.00197897 0)
(-0.00180555 0.00383067 0)
(-0.00357049 0.00582208 0)
(-0.00586346 0.00781559 0)
(-0.0086498 0.00970873 0)
(-0.0118819 0.0114274 0)
(-0.0155019 0.0129204 0)
(-0.0194456 0.0141543 0)
(-0.023644 0.0151094 0)
(-0.0280249 0.0157765 0)
(-0.0325152 0.0161545 0)
(-0.0370418 0.0162482 0)
(-0.0415331 0.0160673 0)
(-0.0459201 0.015625 0)
(-0.0501372 0.0149371 0)
(-0.054123 0.0140216 0)
(-0.0578205 0.0128978 0)
(-0.0611782 0.0115866 0)
(-0.0641495 0.0101095 0)
(-0.0666941 0.00848915 0)
(-0.0687774 0.00674876 0)
(-0.0703708 0.00491225 0)
(-0.0714525 0.00300421 0)
(-0.072007 0.00104983 0)
(-0.000109828 0.000806573 0)
(-0.000758314 0.00297991 0)
(-0.0021905 0.00545246 0)
(-0.00428394 0.00802877 0)
(-0.00696849 0.0105645 0)
(-0.0101955 0.0129491 0)
(-0.0139052 0.0151005 0)
(-0.0180295 0.0169609 0)
(-0.0224952 0.0184916 0)
(-0.0272257 0.0196693 0)
(-0.0321417 0.0204829 0)
(-0.0371635 0.020931 0)
(-0.0422118 0.0210194 0)
(-0.0472094 0.02076 0)
(-0.0520819 0.0201691 0)
(-0.0567585 0.0192665 0)
(-0.061173 0.0180746 0)
(-0.0652642 0.016618 0)
(-0.0689765 0.0149227 0)
(-0.0722598 0.0130164 0)
(-0.0750707 0.0109277 0)
(-0.0773717 0.00868615 0)
(-0.0791324 0.0063222 0)
(-0.080329 0.0038672 0)
(-0.0809448 0.00135325 0)
(-0.00013132 0.00122412 0)
(-0.000893534 0.0041689 0)
(-0.00256072 0.00735648 0)
(-0.00497564 0.0105918 0)
(-0.00804585 0.0137269 0)
(-0.0117082 0.016646 0)
(-0.0158901 0.0192616 0)
(-0.0205123 0.0215107 0)
(-0.0254923 0.0233508 0)
(-0.0307449 0.0247563 0)
(-0.0361837 0.0257147 0)
(-0.0417225 0.026225 0)
(-0.0472762 0.0262946 0)
(-0.052762 0.0259378 0)
(-0.0581006 0.0251744 0)
(-0.0632168 0.0240286 0)
(-0.0680403 0.0225276 0)
(-0.0725061 0.0207016 0)
(-0.0765551 0.0185825 0)
(-0.0801346 0.016204 0)
(-0.0831982 0.0136013 0)
(-0.0857064 0.0108107 0)
(-0.0876268 0.00786966 0)
(-0.0889343 0.00481666 0)
(-0.0896109 0.00169115 0)
(-0.000151398 0.00170876 0)
(-0.00102251 0.00553894 0)
(-0.00291743 0.00953515 0)
(-0.00564653 0.0135042 0)
(-0.00909593 0.0172968 0)
(-0.0131879 0.020794 0)
(-0.0178368 0.0239048 0)
(-0.0229515 0.0265632 0)
(-0.0284394 0.0287243 0)
(-0.0342067 0.030361 0)
(-0.0401595 0.0314609 0)
(-0.0462049 0.0320237 0)
(-0.0522519 0.0320592 0)
(-0.0582127 0.0315847 0)
(-0.0640033 0.0306242 0)
(-0.0695444 0.0292065 0)
(-0.0747621 0.0273641 0)
(-0.0795882 0.025133 0)
(-0.0839609 0.0225514 0)
(-0.0878247 0.0196597 0)
(-0.0911313 0.0164997 0)
(-0.0938392 0.013115 0)
(-0.0959146 0.00955021 0)
(-0.0973309 0.00585133 0)
(-0.0980693 0.00206548 0)
(-0.000170426 0.00225745 0)
(-0.00114655 0.00708392 0)
(-0.00326301 0.0119815 0)
(-0.00629975 0.0167594 0)
(-0.0101224 0.0212681 0)
(-0.0146388 0.0253876 0)
(-0.0197499 0.0290252 0)
(-0.0253526 0.0321134 0)
(-0.0313435 0.0346062 0)
(-0.03762 0.0364766 0)
(-0.0440802 0.0377131 0)
(-0.0506244 0.0383176 0)
(-0.0571558 0.0383026 0)
(-0.0635817 0.0376894 0)
(-0.0698136 0.0365064 0)
(-0.0757685 0.0347876 0)
(-0.0813693 0.0325717 0)
(-0.086545 0.0299005 0)
(-0.0912313 0.0268191 0)
(-0.0953708 0.0233746 0)
(-0.0989133 0.019616 0)
(-0.101816 0.0155942 0)
(-0.104043 0.0113615 0)
(-0.105568 0.00697144 0)
(-0.10637 0.00247915 0)
(-0.000188733 0.00286791 0)
(-0.00126702 0.00879905 0)
(-0.00360029 0.0146897 0)
(-0.00693952 0.0203514 0)
(-0.0111306 0.0256357 0)
(-0.0160673 0.0304224 0)
(-0.0216368 0.0346186 0)
(-0.0277237 0.0381569 0)
(-0.0342139 0.0409919 0)
(-0.0409952 0.0430978 0)
(-0.0479577 0.0444655 0)
(-0.0549947 0.0450996 0)
(-0.0620038 0.0450167 0)
(-0.0688869 0.0442427 0)
(-0.0755516 0.0428113 0)
(-0.0819115 0.0407624 0)
(-0.0878865 0.0381408 0)
(-0.0934032 0.0349952 0)
(-0.0983953 0.0313774 0)
(-0.102804 0.0273419 0)
(-0.106577 0.0229451 0)
(-0.109671 0.0182453 0)
(-0.112049 0.0133025 0)
(-0.113683 0.00817837 0)
(-0.114552 0.00293584 0)
(-0.000206603 0.00353862 0)
(-0.00138524 0.0106809 0)
(-0.00393218 0.0176556 0)
(-0.00757045 0.0242763 0)
(-0.0121267 0.0303957 0)
(-0.0174806 0.0358947 0)
(-0.0235058 0.0406817 0)
(-0.0300743 0.0446905 0)
(-0.0370608 0.0478778 0)
(-0.0443435 0.0502205 0)
(-0.0518041 0.0517129 0)
(-0.0593289 0.0523639 0)
(-0.0668095 0.0521949 0)
(-0.0741431 0.0512374 0)
(-0.0812333 0.0495312 0)
(-0.0879903 0.0471227 0)
(-0.0943316 0.0440635 0)
(-0.100182 0.0404095 0)
(-0.105473 0.0362198 0)
(-0.110144 0.0315563 0)
(-0.114144 0.0264831 0)
(-0.117426 0.0210663 0)
(-0.119954 0.0153735 0)
(-0.121698 0.00947433 0)
(-0.122638 0.00343991 0)
(-0.000224282 0.00426873 0)
(-0.00150241 0.0127277 0)
(-0.00426151 0.0208768 0)
(-0.0081971 0.0285314 0)
(-0.0131169 0.0355457 0)
(-0.0188865 0.0418026 0)
(-0.0253659 0.0472124 0)
(-0.0324141 0.0517119 0)
(-0.0398947 0.0552612 0)
(-0.0476757 0.0578412 0)
(-0.0556304 0.059451 0)
(-0.0636382 0.0601052 0)
(-0.0715844 0.059831 0)
(-0.0793617 0.0586666 0)
(-0.0868698 0.0566587 0)
(-0.0940161 0.0538609 0)
(-0.100716 0.0503323 0)
(-0.106892 0.0461365 0)
(-0.112475 0.0413402 0)
(-0.117404 0.0360131 0)
(-0.121625 0.0302269 0)
(-0.125093 0.0240557 0)
(-0.127771 0.0175749 0)
(-0.129627 0.010862 0)
(-0.13064 0.00399624 0)
(-0.000241982 0.00505799 0)
(-0.00161962 0.0149386 0)
(-0.00459089 0.0243525 0)
(-0.00882385 0.033116 0)
(-0.0141072 0.041085 0)
(-0.0202924 0.0481449 0)
(-0.0272254 0.0542095 0)
(-0.0347523 0.0592193 0)
(-0.042725 0.0631395 0)
(-0.0510013 0.0659564 0)
(-0.0594461 0.0676755 0)
(-0.0679312 0.068318 0)
(-0.0763364 0.0679185 0)
(-0.0845497 0.0665229 0)
(-0.0924672 0.0641858 0)
(-0.0999939 0.0609688 0)
(-0.107043 0.0569392 0)
(-0.113536 0.0521687 0)
(-0.119403 0.046732 0)
(-0.124583 0.0407068 0)
(-0.129021 0.0341729 0)
(-0.132672 0.0272119 0)
(-0.135498 0.0199073 0)
(-0.137468 0.0123443 0)
(-0.13856 0.00461005 0)
(-0.000259885 0.0059067 0)
(-0.00173786 0.0173143 0)
(-0.00492275 0.0280835 0)
(-0.00945474 0.0380308 0)
(-0.0151032 0.0470142 0)
(-0.0217051 0.0549221 0)
(-0.0290923 0.0616725 0)
(-0.0370973 0.0672115 0)
(-0.0455601 0.0715103 0)
(-0.0543284 0.0745624 0)
(-0.0632581 0.076381 0)
(-0.072214 0.0769956 0)
(-0.08107 0.0764496 0)
(-0.0897098 0.0747975 0)
(-0.0980263 0.072103 0)
(-0.105922 0.0684366 0)
(-0.11331 0.0638746 0)
(-0.120109 0.058497 0)
(-0.126251 0.0523873 0)
(-0.131673 0.0456311 0)
(-0.136321 0.0383164 0)
(-0.140151 0.0305326 0)
(-0.143123 0.0223708 0)
(-0.145208 0.0139239 0)
(-0.146382 0.00528672 0)
(-0.000278154 0.00681566 0)
(-0.00185802 0.0198567 0)
(-0.00525928 0.0320721 0)
(-0.0100935 0.0432784 0)
(-0.0161102 0.0533354 0)
(-0.0231311 0.0621354 0)
(-0.0309736 0.0696018 0)
(-0.0394564 0.0756872 0)
(-0.0484071 0.0803707 0)
(-0.057663 0.0836545 0)
(-0.0670711 0.0855611 0)
(-0.076489 0.0861299 0)
(-0.0857853 0.0854144 0)
(-0.0948394 0.0834793 0)
(-0.103542 0.0803983 0)
(-0.111793 0.0762521 0)
(-0.119504 0.0711261 0)
(-0.126596 0.0651099 0)
(-0.132999 0.0582956 0)
(-0.138652 0.0507774 0)
(-0.143502 0.0426511 0)
(-0.147504 0.034014 0)
(-0.15062 0.0249645 0)
(-0.152819 0.015603 0)
(-0.154079 0.00603159 0)
(-0.000296935 0.00778608 0)
(-0.00198091 0.0225685 0)
(-0.00560254 0.036322 0)
(-0.0107436 0.0488624 0)
(-0.0171328 0.0600519 0)
(-0.0245762 0.0697871 0)
(-0.0328756 0.0779979 0)
(-0.0418357 0.0846451 0)
(-0.0512713 0.089717 0)
(-0.0610089 0.0932265 0)
(-0.0708867 0.0952071 0)
(-0.0807553 0.0957099 0)
(-0.090478 0.0948 0)
(-0.0999305 0.0925538 0)
(-0.109001 0.0890563 0)
(-0.117589 0.0843991 0)
(-0.125606 0.078678 0)
(-0.132973 0.0719924 0)
(-0.139621 0.0644436 0)
(-0.14549 0.0561342 0)
(-0.15053 0.0471682 0)
(-0.154694 0.0376502 0)
(-0.157948 0.027686 0)
(-0.16026 0.0173829 0)
(-0.161608 0.00684969 0)
(-0.000316365 0.00881959 0)
(-0.00210732 0.0254536 0)
(-0.00595448 0.0408381 0)
(-0.0114084 0.0547881 0)
(-0.0181755 0.067168 0)
(-0.0260455 0.07788 0)
(-0.0348039 0.0868615 0)
(-0.0442402 0.0940829 0)
(-0.0541563 0.099544 0)
(-0.0643677 0.10327 0)
(-0.0747037 0.105308 0)
(-0.085008 0.105721 0)
(-0.0951389 0.10459 0)
(-0.104969 0.102002 0)
(-0.114385 0.0980569 0)
(-0.123287 0.092857 0)
(-0.131586 0.0865099 0)
(-0.139204 0.079125 0)
(-0.146076 0.0708133 0)
(-0.152142 0.0616861 0)
(-0.157355 0.0518552 0)
(-0.16167 0.0414325 0)
(-0.165053 0.0305307 0)
(-0.167475 0.0192633 0)
(-0.168913 0.00774542 0)
(-0.000336582 0.00991821 0)
(-0.002238 0.0285166 0)
(-0.00631702 0.0456266 0)
(-0.0120909 0.0610616 0)
(-0.0192427 0.0746891 0)
(-0.027544 0.0864174 0)
(-0.0367631 0.0961928 0)
(-0.0466738 0.103998 0)
(-0.0570642 0.109845 0)
(-0.0677387 0.113774 0)
(-0.0785174 0.115847 0)
(-0.0892378 0.116145 0)
(-0.0997537 0.114761 0)
(-0.109935 0.1118 0)
(-0.119669 0.107374 0)
(-0.128854 0.101599 0)
(-0.137404 0.0945953 0)
(-0.145245 0.0864825 0)
(-0.152312 0.0773817 0)
(-0.158551 0.0674129 0)
(-0.163915 0.0566957 0)
(-0.168364 0.0453489 0)
(-0.171865 0.0334913 0)
(-0.17439 0.0212423 0)
(-0.175917 0.00872223 0)
(-0.000357728 0.0110844 0)
(-0.00237378 0.0317634 0)
(-0.00669217 0.0506949 0)
(-0.0127946 0.0676906 0)
(-0.0203387 0.0826213 0)
(-0.0290765 0.0954025 0)
(-0.0387578 0.105992 0)
(-0.0491394 0.114384 0)
(-0.0599955 0.120609 0)
(-0.0711185 0.124723 0)
(-0.0823201 0.126807 0)
(-0.0934312 0.126958 0)
(-0.104302 0.125287 0)
(-0.114802 0.121917 0)
(-0.124816 0.116975 0)
(-0.134247 0.110592 0)
(-0.143011 0.102901 0)
(-0.151037 0.094033 0)
(-0.158265 0.0841193 0)
(-0.164645 0.0732886 0)
(-0.170133 0.061668 0)
(-0.174694 0.0493827 0)
(-0.178296 0.0365571 0)
(-0.180915 0.0233152 0)
(-0.182529 0.00978217 0)
(-0.000379963 0.0123209 0)
(-0.00251554 0.0352007 0)
(-0.00708213 0.0560517 0)
(-0.0135231 0.0746837 0)
(-0.021468 0.0909712 0)
(-0.0306478 0.104839 0)
(-0.040792 0.116256 0)
(-0.0516394 0.125235 0)
(-0.0629491 0.131824 0)
(-0.0745018 0.136099 0)
(-0.0861003 0.13816 0)
(-0.0975701 0.138127 0)
(-0.108759 0.136132 0)
(-0.119534 0.132314 0)
(-0.129784 0.126819 0)
(-0.139414 0.119794 0)
(-0.148345 0.111385 0)
(-0.156511 0.101737 0)
(-0.163856 0.090989 0)
(-0.170337 0.0792802 0)
(-0.175915 0.0667443 0)
(-0.180558 0.0535122 0)
(-0.184241 0.0397129 0)
(-0.18694 0.0254746 0)
(-0.188635 0.0109255 0)
(-0.000403477 0.0136312 0)
(-0.00266434 0.0388363 0)
(-0.00748945 0.061707 0)
(-0.0142803 0.0820506 0)
(-0.0226359 0.0997463 0)
(-0.0322633 0.114729 0)
(-0.04287 0.126983 0)
(-0.0541755 0.136541 0)
(-0.0659228 0.143472 0)
(-0.0778805 0.147875 0)
(-0.0898431 0.149875 0)
(-0.101631 0.149616 0)
(-0.11309 0.147251 0)
(-0.124089 0.142943 0)
(-0.13452 0.136856 0)
(-0.144292 0.129153 0)
(-0.153331 0.119997 0)
(-0.16158 0.109544 0)
(-0.16899 0.0979451 0)
(-0.175523 0.0853469 0)
(-0.181148 0.0718897 0)
(-0.18584 0.0577095 0)
(-0.189576 0.0429391 0)
(-0.192337 0.0277091 0)
(-0.194104 0.0121499 0)
(-0.0004285 0.0150192 0)
(-0.00282142 0.0426796 0)
(-0.00791718 0.0676727 0)
(-0.0150713 0.0898027 0)
(-0.0238484 0.108955 0)
(-0.0339291 0.125075 0)
(-0.0449966 0.138169 0)
(-0.056749 0.148288 0)
(-0.0689128 0.155529 0)
(-0.081244 0.160019 0)
(-0.0935293 0.161911 0)
(-0.105585 0.161374 0)
(-0.117257 0.15859 0)
(-0.128416 0.153744 0)
(-0.138959 0.147021 0)
(-0.148802 0.138605 0)
(-0.157881 0.128673 0)
(-0.166145 0.117395 0)
(-0.173555 0.104932 0)
(-0.180082 0.0914384 0)
(-0.185703 0.077061 0)
(-0.190398 0.0619398 0)
(-0.194153 0.0462098 0)
(-0.196952 0.0300031 0)
(-0.19878 0.0134504 0)
(-0.000455322 0.0164894 0)
(-0.00298837 0.0467415 0)
(-0.00836911 0.0739624 0)
(-0.0159019 0.0979529 0)
(-0.0251128 0.118605 0)
(-0.0356526 0.13588 0)
(-0.047177 0.149804 0)
(-0.0593614 0.160458 0)
(-0.0719142 0.167967 0)
(-0.0845792 0.172491 0)
(-0.0971354 0.174216 0)
(-0.109397 0.173343 0)
(-0.12121 0.170082 0)
(-0.132452 0.164645 0)
(-0.143025 0.157241 0)
(-0.152856 0.148075 0)
(-0.161891 0.137339 0)
(-0.170088 0.125217 0)
(-0.177422 0.111882 0)
(-0.183872 0.0974943 0)
(-0.189427 0.0822061 0)
(-0.194074 0.0661602 0)
(-0.197806 0.0494928 0)
(-0.200613 0.0323357 0)
(-0.202483 0.0148182 0)
(-0.000484319 0.0180476 0)
(-0.0031672 0.051035 0)
(-0.00885001 0.0805922 0)
(-0.0167796 0.106516 0)
(-0.0264383 0.128706 0)
(-0.0374426 0.147143 0)
(-0.0494179 0.161878 0)
(-0.062014 0.173026 0)
(-0.0749207 0.180747 0)
(-0.0878693 0.18524 0)
(-0.100632 0.186728 0)
(-0.113023 0.185448 0)
(-0.124892 0.181645 0)
(-0.136123 0.175558 0)
(-0.146628 0.167426 0)
(-0.156348 0.15747 0)
(-0.165238 0.145905 0)
(-0.173274 0.132926 0)
(-0.180441 0.118716 0)
(-0.186732 0.103443 0)
(-0.192146 0.0872623 0)
(-0.196683 0.0703191 0)
(-0.200342 0.0527485 0)
(-0.20312 0.0346803 0)
(-0.20501 0.0162405 0)
(-0.000515973 0.0197003 0)
(-0.00336047 0.0555758 0)
(-0.00936598 0.0875815 0)
(-0.0177141 0.115509 0)
(-0.0278365 0.139268 0)
(-0.0393105 0.158863 0)
(-0.051727 0.174376 0)
(-0.0647083 0.185961 0)
(-0.0779241 0.193822 0)
(-0.0910938 0.198203 0)
(-0.103985 0.19937 0)
(-0.116413 0.197602 0)
(-0.128233 0.193181 0)
(-0.139341 0.186381 0)
(-0.149663 0.177466 0)
(-0.159152 0.166684 0)
(-0.167782 0.154265 0)
(-0.175545 0.14042 0)
(-0.18244 0.12534 0)
(-0.188476 0.109199 0)
(-0.193664 0.0921562 0)
(-0.198016 0.0743552 0)
(-0.201542 0.0559292 0)
(-0.204247 0.0370038 0)
(-0.206129 0.0176996 0)
(-0.000550921 0.0214558 0)
(-0.00357152 0.0603829 0)
(-0.00992484 0.0949534 0)
(-0.0187172 0.124952 0)
(-0.0293217 0.150303 0)
(-0.04127 0.171037 0)
(-0.054114 0.187277 0)
(-0.0674456 0.199223 0)
(-0.0809138 0.207132 0)
(-0.0942268 0.211301 0)
(-0.10715 0.212046 0)
(-0.119502 0.209696 0)
(-0.131149 0.204572 0)
(-0.142002 0.196987 0)
(-0.152003 0.187236 0)
(-0.161124 0.175589 0)
(-0.16936 0.162297 0)
(-0.176719 0.147582 0)
(-0.183221 0.131646 0)
(-0.188891 0.114666 0)
(-0.193755 0.0968027 0)
(-0.19784 0.0781972 0)
(-0.201164 0.0589787 0)
(-0.203743 0.0392661 0)
(-0.205581 0.0191725 0)
(-0.000589996 0.0233243 0)
(-0.00380467 0.0654798 0)
(-0.0105366 0.102736 0)
(-0.0198044 0.13487 0)
(-0.030912 0.161822 0)
(-0.0433381 0.183659 0)
(-0.0565901 0.200552 0)
(-0.0702265 0.212761 0)
(-0.0838754 0.220603 0)
(-0.0972354 0.224438 0)
(-0.110072 0.224644 0)
(-0.122213 0.221601 0)
(-0.133539 0.21568 0)
(-0.14398 0.207233 0)
(-0.1535 0.196587 0)
(-0.162094 0.18404 0)
(-0.16978 0.169859 0)
(-0.176589 0.15428 0)
(-0.18256 0.137511 0)
(-0.187739 0.119733 0)
(-0.192169 0.101104 0)
(-0.195889 0.0817634 0)
(-0.198934 0.0618318 0)
(-0.201326 0.0414199 0)
(-0.203078 0.0206303 0)
(-0.000634303 0.0253185 0)
(-0.00406559 0.0708955 0)
(-0.0112144 0.110963 0)
(-0.0209953 0.14529 0)
(-0.0326302 0.173839 0)
(-0.0455355 0.196719 0)
(-0.0591679 0.214166 0)
(-0.0730499 0.226508 0)
(-0.0867888 0.234141 0)
(-0.100076 0.237497 0)
(-0.112683 0.237023 0)
(-0.12445 0.233162 0)
(-0.135279 0.226338 0)
(-0.145125 0.216947 0)
(-0.153979 0.205349 0)
(-0.161864 0.191869 0)
(-0.168824 0.17679 0)
(-0.174915 0.160361 0)
(-0.180202 0.142795 0)
(-0.18475 0.124274 0)
(-0.188622 0.104952 0)
(-0.191873 0.0849616 0)
(-0.19455 0.0644146 0)
(-0.196687 0.0434102 0)
(-0.198306 0.0220381 0)
(-0.000685313 0.0274546 0)
(-0.00436165 0.0766662 0)
(-0.0119747 0.119677 0)
(-0.0223144 0.156246 0)
(-0.0345042 0.186365 0)
(-0.0478864 0.210201 0)
(-0.0618607 0.228068 0)
(-0.0759108 0.240382 0)
(-0.0896248 0.247629 0)
(-0.102692 0.250331 0)
(-0.114893 0.249016 0)
(-0.126091 0.244196 0)
(-0.136217 0.236354 0)
(-0.145255 0.225931 0)
(-0.15323 0.213325 0)
(-0.160199 0.198884 0)
(-0.166235 0.182909 0)
(-0.171424 0.165657 0)
(-0.175858 0.147345 0)
(-0.179623 0.128152 0)
(-0.182802 0.108226 0)
(-0.185467 0.0876904 0)
(-0.187681 0.0666451 0)
(-0.189487 0.0451752 0)
(-0.190918 0.0233551 0)
(-0.000744996 0.0297529 0)
(-0.0047026 0.0828375 0)
(-0.0128394 0.128929 0)
(-0.0237932 0.167777 0)
(-0.036568 0.199413 0)
(-0.050419 0.224081 0)
(-0.0646809 0.242191 0)
(-0.0787973 0.254272 0)
(-0.0923403 0.260921 0)
(-0.105003 0.262764 0)
(-0.116587 0.260421 0)
(-0.126985 0.254484 0)
(-0.136164 0.2455 0)
(-0.144148 0.233958 0)
(-0.151004 0.220291 0)
(-0.156823 0.204871 0)
(-0.161717 0.188014 0)
(-0.165803 0.169983 0)
(-0.169199 0.150992 0)
(-0.172016 0.131217 0)
(-0.174359 0.110796 0)
(-0.176316 0.0898398 0)
(-0.177964 0.0684339 0)
(-0.179359 0.0466468 0)
(-0.180541 0.0245347 0)
(-0.000816024 0.0322397 0)
(-0.00510129 0.0894669 0)
(-0.0138362 0.138783 0)
(-0.0254709 0.17993 0)
(-0.038863 0.212994 0)
(-0.0531641 0.23832 0)
(-0.0676368 0.256447 0)
(-0.081685 0.268041 0)
(-0.0948708 0.273834 0)
(-0.106902 0.274576 0)
(-0.117611 0.270996 0)
(-0.126933 0.263771 0)
(-0.134882 0.253515 0)
(-0.141533 0.240768 0)
(-0.146997 0.225998 0)
(-0.151412 0.209595 0)
(-0.154926 0.191887 0)
(-0.157692 0.173137 0)
(-0.159855 0.153557 0)
(-0.161553 0.133311 0)
(-0.16291 0.112525 0)
(-0.164031 0.0912944 0)
(-0.165007 0.0696869 0)
(-0.165905 0.047752 0)
(-0.166776 0.0255255 0)
(-0.000902058 0.0349491 0)
(-0.0055749 0.0966276 0)
(-0.0150017 0.149318 0)
(-0.0273969 0.192756 0)
(-0.0414375 0.22711 0)
(-0.0561532 0.252862 0)
(-0.0707277 0.270713 0)
(-0.0845286 0.281505 0)
(-0.097119 0.286136 0)
(-0.108236 0.285501 0)
(-0.117758 0.280449 0)
(-0.125679 0.271753 0)
(-0.132073 0.260097 0)
(-0.137074 0.24607 0)
(-0.140847 0.230167 0)
(-0.143579 0.212798 0)
(-0.145461 0.194292 0)
(-0.146679 0.17491 0)
(-0.14741 0.154852 0)
(-0.147814 0.13427 0)
(-0.148033 0.113273 0)
(-0.148191 0.0919362 0)
(-0.148389 0.0703075 0)
(-0.148706 0.0484153 0)
(-0.1492 0.026273 0)
(-0.0010082 0.0379256 0)
(-0.00614659 0.104413 0)
(-0.016383 0.16063 0)
(-0.0296323 0.206314 0)
(-0.0443471 0.241755 0)
(-0.0594142 0.267618 0)
(-0.0739346 0.284823 0)
(-0.0872489 0.29443 0)
(-0.0989387 0.297538 0)
(-0.10879 0.295212 0)
(-0.116752 0.288435 0)
(-0.122891 0.278082 0)
(-0.127358 0.264905 0)
(-0.130355 0.249538 0)
(-0.132112 0.2325 0)
(-0.132867 0.214207 0)
(-0.132854 0.194985 0)
(-0.132295 0.175084 0)
(-0.131394 0.15469 0)
(-0.130333 0.133933 0)
(-0.129271 0.112902 0)
(-0.128344 0.0916497 0)
(-0.127664 0.0702013 0)
(-0.127318 0.0485619 0)
(-0.12737 0.0267212 0)
(-0.00114173 0.0412279 0)
(-0.00684804 0.112943 0)
(-0.0180424 0.172834 0)
(-0.0322528 0.220665 0)
(-0.0476522 0.256898 0)
(-0.0629631 0.282457 0)
(-0.0772059 0.298547 0)
(-0.0897125 0.306506 0)
(-0.10011 0.307673 0)
(-0.108264 0.30331 0)
(-0.114216 0.294545 0)
(-0.118133 0.282354 0)
(-0.120255 0.267557 0)
(-0.120865 0.25082 0)
(-0.120261 0.232676 0)
(-0.118735 0.213537 0)
(-0.116566 0.193718 0)
(-0.114007 0.173448 0)
(-0.111285 0.152888 0)
(-0.108602 0.132146 0)
(-0.106127 0.111284 0)
(-0.104007 0.0903283 0)
(-0.10236 0.0692809 0)
(-0.101279 0.0481217 0)
(-0.100832 0.0268162 0)
(-0.00131327 0.0449346 0)
(-0.00772331 0.122372 0)
(-0.0200615 0.186074 0)
(-0.0353497 0.235864 0)
(-0.0514123 0.272472 0)
(-0.066789 0.297179 0)
(-0.0804333 0.31157 0)
(-0.0917009 0.317329 0)
(-0.100305 0.316083 0)
(-0.106229 0.309311 0)
(-0.109642 0.298297 0)
(-0.110833 0.284114 0)
(-0.110151 0.267632 0)
(-0.107967 0.24954 0)
(-0.104649 0.230367 0)
(-0.100546 0.210508 0)
(-0.095972 0.190254 0)
(-0.0912093 0.169802 0)
(-0.0865034 0.149284 0)
(-0.0820651 0.128774 0)
(-0.0780726 0.108307 0)
(-0.0746742 0.0878818 0)
(-0.0719906 0.0674724 0)
(-0.0701171 0.0470345 0)
(-0.0691251 0.0265094 0)
(-0.00153887 0.0491526 0)
(-0.00883491 0.1329 0)
(-0.0225483 0.200513 0)
(-0.0390303 0.25195 0)
(-0.0556742 0.288344 0)
(-0.0708284 0.311484 0)
(-0.0834135 0.323454 0)
(-0.0928639 0.326369 0)
(-0.0990366 0.322191 0)
(-0.102084 0.312637 0)
(-0.102343 0.29914 0)
(-0.100249 0.282855 0)
(-0.0962714 0.264684 0)
(-0.0908782 0.245314 0)
(-0.0845064 0.225251 0)
(-0.0775505 0.204856 0)
(-0.0703576 0.184379 0)
(-0.063227 0.163978 0)
(-0.0564126 0.143743 0)
(-0.0501275 0.123715 0)
(-0.0445485 0.103892 0)
(-0.0398205 0.0842462 0)
(-0.0360604 0.0647239 0)
(-0.0333606 0.0452565 0)
(-0.0317916 0.0257626 0)
(-0.00184371 0.05403 0)
(-0.0102735 0.144786 0)
(-0.0256452 0.216338 0)
(-0.043413 0.268915 0)
(-0.060446 0.304275 0)
(-0.0749182 0.324921 0)
(-0.0857865 0.333595 0)
(-0.0926496 0.332938 0)
(-0.095589 0.325289 0)
(-0.0949893 0.312605 0)
(-0.0913955 0.29645 0)
(-0.0854132 0.278033 0)
(-0.0776433 0.258254 0)
(-0.0686445 0.237769 0)
(-0.0589142 0.217035 0)
(-0.0488828 0.196357 0)
(-0.0389142 0.175928 0)
(-0.0293118 0.155855 0)
(-0.0203253 0.136183 0)
(-0.0121586 0.11691 0)
(-0.00497715 0.0980003 0)
(0.00108589 0.079394 0)
(0.00592395 0.0610131 0)
(0.00945283 0.0427665 0)
(0.0116075 0.0245524 0)
(-0.00226894 0.0597771 0)
(-0.0121738 0.15837 0)
(-0.0295379 0.233744 0)
(-0.0486103 0.28666 0)
(-0.0656473 0.319849 0)
(-0.0787171 0.33682 0)
(-0.0869377 0.341166 0)
(-0.0902012 0.33615 0)
(-0.0889183 0.324511 0)
(-0.0837771 0.308427 0)
(-0.0755703 0.28955 0)
(-0.0650878 0.269091 0)
(-0.0530567 0.247907 0)
(-0.0401139 0.226579 0)
(-0.026798 0.205485 0)
(-0.0135538 0.184854 0)
(-0.000742153 0.164807 0)
(0.0113479 0.145388 0)
(0.0224868 0.12659 0)
(0.0324934 0.108367 0)
(0.0412251 0.0906485 0)
(0.0485694 0.0733459 0)
(0.0544376 0.0563579 0)
(0.0587596 0.0395739 0)
(0.0614798 0.0228764 0)
(-0.00288451 0.0667016 0)
(-0.0147396 0.174085 0)
(-0.0344604 0.252895 0)
(-0.0546852 0.304908 0)
(-0.071012 0.334368 0)
(-0.0815688 0.346195 0)
(-0.0858452 0.345047 0)
(-0.0842075 0.334886 0)
(-0.0775218 0.318837 0)
(-0.066849 0.299234 0)
(-0.053254 0.277744 0)
(-0.0377055 0.255507 0)
(-0.0210341 0.233272 0)
(-0.00392404 0.211505 0)
(0.0130773 0.190471 0)
(0.0295408 0.170299 0)
(0.0451358 0.151026 0)
(0.05961 0.132627 0)
(0.0727731 0.115039 0)
(0.0844815 0.0981729 0)
(0.0946271 0.0819256 0)
(0.103128 0.0661828 0)
(0.109919 0.0508244 0)
(0.114951 0.0357258 0)
(0.118182 0.0207583 0)
(-0.00381326 0.075269 0)
(-0.0182819 0.192482 0)
(-0.0406805 0.273844 0)
(-0.0615461 0.323048 0)
(-0.075902 0.346693 0)
(-0.0822723 0.351615 0)
(-0.0808451 0.343753 0)
(-0.0726939 0.327779 0)
(-0.0592695 0.307116 0)
(-0.0420514 0.284131 0)
(-0.0223675 0.260387 0)
(-0.0013267 0.236858 0)
(0.0201879 0.214117 0)
(0.0414967 0.192463 0)
(0.0620907 0.172018 0)
(0.0815965 0.152795 0)
(0.0997458 0.134738 0)
(0.116349 0.117752 0)
(0.131274 0.10172 0)
(0.14443 0.0865149 0)
(0.155755 0.0720045 0)
(0.165205 0.0580558 0)
(0.172746 0.044536 0)
(0.178353 0.0313124 0)
(0.182002 0.0182523 0)
(-0.00527451 0.0862079 0)
(-0.0232683 0.214213 0)
(-0.0484246 0.296337 0)
(-0.0687098 0.339875 0)
(-0.0789596 0.355006 0)
(-0.078702 0.351063 0)
(-0.0692844 0.335388 0)
(-0.0527432 0.313245 0)
(-0.0312043 0.288147 0)
(-0.00655018 0.2623 0)
(0.019698 0.236998 0)
(0.0463797 0.212939 0)
(0.0726459 0.190442 0)
(0.0978968 0.169599 0)
(0.121722 0.150371 0)
(0.143852 0.132645 0)
(0.164114 0.116275 0)
(0.182408 0.101101 0)
(0.198678 0.08696 0)
(0.212897 0.0736947 0)
(0.225058 0.0611542 0)
(0.23516 0.0491945 0)
(0.243206 0.0376781 0)
(0.249198 0.026472 0)
(0.25313 0.0154461 0)
(-0.0076544 0.100683 0)
(-0.030355 0.23992 0)
(-0.0576314 0.319433 0)
(-0.0747827 0.353155 0)
(-0.0774705 0.356503 0)
(-0.0672013 0.341804 0)
(-0.0470323 0.317672 0)
(-0.020154 0.28961 0)
(0.0106619 0.260865 0)
(0.0432631 0.233193 0)
(0.0760968 0.207436 0)
(0.108101 0.1839 0)
(0.138585 0.162596 0)
(0.167123 0.143386 0)
(0.193471 0.126065 0)
(0.217509 0.110406 0)
(0.239195 0.0961852 0)
(0.258534 0.0831924 0)
(0.27556 0.0712351 0)
(0.290318 0.0601387 0)
(0.302859 0.049745 0)
(0.313229 0.0399099 0)
(0.321466 0.0305002 0)
(0.327598 0.0213907 0)
(0.331641 0.0124614 0)
(-0.0115741 0.120523 0)
(-0.0402531 0.269849 0)
(-0.0672413 0.340745 0)
(-0.0763672 0.358994 0)
(-0.0662428 0.347103 0)
(-0.0416696 0.320412 0)
(-0.00785717 0.288177 0)
(0.0309109 0.255446 0)
(0.0714898 0.224672 0)
(0.111771 0.196835 0)
(0.150443 0.172147 0)
(0.186754 0.150448 0)
(0.220317 0.131424 0)
(0.250978 0.11472 0)
(0.278722 0.0999918 0)
(0.303615 0.0869286 0)
(0.325762 0.075257 0)
(0.345285 0.0647417 0)
(0.362309 0.0551805 0)
(0.376949 0.0463995 0)
(0.38931 0.0382475 0)
(0.399481 0.0305914 0)
(0.407531 0.0233118 0)
(0.413514 0.0162992 0)
(0.417462 0.00945041 0)
(-0.0177485 0.14855 0)
(-0.0528821 0.30281 0)
(-0.0732995 0.355066 0)
(-0.0658498 0.351045 0)
(-0.0357681 0.321364 0)
(0.00765748 0.283172 0)
(0.0572145 0.244934 0)
(0.108135 0.210188 0)
(0.157552 0.179982 0)
(0.203924 0.154245 0)
(0.246547 0.132471 0)
(0.285207 0.114049 0)
(0.319959 0.0983957 0)
(0.350993 0.0850025 0)
(0.378554 0.0734467 0)
(0.4029 0.0633824 0)
(0.424283 0.0545286 0)
(0.442929 0.046657 0)
(0.459041 0.0395807 0)
(0.472792 0.033145 0)
(0.484329 0.0272199 0)
(0.493772 0.0216944 0)
(0.501215 0.0164711 0)
(0.506727 0.0114627 0)
(0.510355 0.0065882 0)
(-0.0258806 0.189372 0)
(-0.0643844 0.333672 0)
(-0.0643981 0.351754 0)
(-0.0272763 0.319467 0)
(0.0304606 0.272792 0)
(0.0955016 0.227022 0)
(0.160221 0.187481 0)
(0.220819 0.155021 0)
(0.275751 0.128865 0)
(0.324688 0.107854 0)
(0.367882 0.0908882 0)
(0.405821 0.0770607 0)
(0.439056 0.0656607 0)
(0.468119 0.0561448 0)
(0.49349 0.0481001 0)
(0.515586 0.0412119 0)
(0.534762 0.0352383 0)
(0.551319 0.0299917 0)
(0.565504 0.0253239 0)
(0.577524 0.0211161 0)
(0.587545 0.0172715 0)
(0.595702 0.0137089 0)
(0.602099 0.010359 0)
(0.606812 0.00716033 0)
(0.609893 0.00405691 0)
(-0.0296293 0.246724 0)
(-0.0583989 0.346547 0)
(-0.0119576 0.311495 0)
(0.0703986 0.251533 0)
(0.159094 0.196214 0)
(0.242193 0.152098 0)
(0.31563 0.118865 0)
(0.37876 0.0942148 0)
(0.432448 0.0758297 0)
(0.478012 0.0619134 0)
(0.516752 0.0511841 0)
(0.549797 0.0427495 0)
(0.57808 0.0359911 0)
(0.602355 0.0304768 0)
(0.623226 0.0259003 0)
(0.641176 0.0220407 0)
(0.656591 0.0187359 0)
(0.669782 0.015864 0)
(0.680996 0.013332 0)
(0.690434 0.0110672 0)
(0.698255 0.00901136 0)
(0.704583 0.00711694 0)
(0.709514 0.00534371 0)
(0.713121 0.00365666 0)