/*--------------------------------*- C++ -*----------------------------------*\
| =========                 |                                                 |
| \\      /  F ield         | OpenFOAM: The Open Source CFD Toolbox           |
|  \\    /   O peration     | Version:  v2012                                 |
|   \\  /    A nd           | Website:  www.openfoam.com                      |
|    \\/     M anipulation  |                                                 |
\*---------------------------------------------------------------------------*/
FoamFile
{
    version     2.0;
    format      ascii;
    class       volVectorField;
    location    "0.2";
    object      U;
}
// * * * * * * * * * * * * * * * * * * * * * * * * * * * * * * * * * * * * * //

dimensions      [0 1 -1 0 0 0 0];


internalField   nonuniform List<vector> 
1250
(
(3.26608e-05 -3.2749e-05 0)
(9.86948e-05 -4.06539e-05 0)
(0.000137163 -2.0942e-05 0)
(0.000106088 7.85958e-06 0)
(-8.7928e-06 3.77057e-05 0)
(-0.000205927 6.52934e-05 0)
(-0.000477982 8.93121e-05 0)
(-0.000815147 0.000109349 0)
(-0.00120649 0.00012538 0)
(-0.00164076 0.000137543 0)
(-0.0021068 0.000146043 0)
(-0.00259382 0.000151112 0)
(-0.00309155 0.00015299 0)
(-0.0035903 0.000151919 0)
(-0.00408099 0.000148137 0)
(-0.00455526 0.000141877 0)
(-0.00500539 0.000133368 0)
(-0.00542439 0.000122834 0)
(-0.00580596 0.000110494 0)
(-0.00614449 9.65667e-05 0)
(-0.00643511 8.12676e-05 0)
(-0.00667366 6.48138e-05 0)
(-0.00685669 4.74246e-05 0)
(-0.00698151 2.93239e-05 0)
(-0.0070462 1.07423e-05 0)
(4.10441e-05 -9.90692e-05 0)
(9.38115e-05 -9.28618e-05 0)
(4.53838e-05 1.45192e-05 0)
(-0.000168683 0.000161726 0)
(-0.000575316 0.000318062 0)
(-0.00117586 0.000467535 0)
(-0.00195794 0.000601825 0)
(-0.00290136 0.000716876 0)
(-0.00398145 0.000810949 0)
(-0.00517134 0.000883582 0)
(-0.00644337 0.000935049 0)
(-0.00777004 0.000966061 0)
(-0.00912457 0.000977596 0)
(-0.0104813 0.000970792 0)
(-0.0118162 0.000946893 0)
(-0.0131064 0.000907199 0)
(-0.0143311 0.00085305 0)
(-0.0154712 0.00078581 0)
(-0.0165094 0.000706857 0)
(-0.0174304 0.000617585 0)
(-0.0182208 0.000519403 0)
(-0.0188691 0.000413742 0)
(-0.019366 0.000302056 0)
(-0.0197042 0.000185833 0)
(-0.0198783 6.66019e-05 0)
(2.24673e-05 -0.000139112 0)
(-1.00582e-05 -4.56554e-05 0)
(-0.000233929 0.00023945 0)
(-0.000705394 0.000608753 0)
(-0.00145024 0.00100189 0)
(-0.00247 0.00138257 0)
(-0.00374888 0.00172926 0)
(-0.00525982 0.00202987 0)
(-0.00696876 0.00227806 0)
(-0.00883764 0.00247109 0)
(-0.0108264 0.00260849 0)
(-0.0128947 0.00269126 0)
(-0.0150025 0.00272136 0)
(-0.0171114 0.00270142 0)
(-0.0191845 0.00263447 0)
(-0.0211873 0.00252386 0)
(-0.0230877 0.00237313 0)
(-0.0248562 0.00218594 0)
(-0.0264663 0.00196607 0)
(-0.0278942 0.00171739 0)
(-0.0291191 0.00144382 0)
(-0.0301233 0.00114939 0)
(-0.0308924 0.000838194 0)
(-0.031415 0.000514437 0)
(-0.0316832 0.000182422 0)
(-4.90479e-06 -0.000112135 0)
(-0.000153754 0.000164463 0)
(-0.000599606 0.000709749 0)
(-0.00137218 0.00137882 0)
(-0.00248615 0.00208367 0)
(-0.0039389 0.00276698 0)
(-0.00570978 0.00339217 0)
(-0.00776548 0.00393699 0)
(-0.0100644 0.00438871 0)
(-0.0125598 0.00474093 0)
(-0.0152019 0.00499156 0)
(-0.0179401 0.00514144 0)
(-0.0207239 0.00519342 0)
(-0.0235043 0.0051518 0)
(-0.0262342 0.00502181 0)
(-0.0288691 0.00480943 0)
(-0.0313676 0.00452109 0)
(-0.0336914 0.00416359 0)
(-0.0358061 0.00374402 0)
(-0.0376805 0.00326964 0)
(-0.0392879 0.00274795 0)
(-0.0406051 0.0021866 0)
(-0.0416132 0.00159344 0)
(-0.0422976 0.0009765 0)
(-0.042648 0.000344018 0)
(-3.36629e-05 -3.26912e-06 0)
(-0.000309781 0.000567436 0)
(-0.00099944 0.00145711 0)
(-0.00209622 0.00249546 0)
(-0.00359709 0.00357231 0)
(-0.0054914 0.0046118 0)
(-0.0077515 0.00556289 0)
(-0.0103371 0.00639281 0)
(-0.0131996 0.00708167 0)
(-0.0162845 0.00761864 0)
(-0.0195343 0.00799937 0)
(-0.0228897 0.00822414 0)
(-0.0262917 0.00829652 0)
(-0.0296825 0.0082225 0)
(-0.0330065 0.00800976 0)
(-0.0362111 0.00766725 0)
(-0.0392469 0.00720482 0)
(-0.0420684 0.00663303 0)
(-0.0446342 0.00596293 0)
(-0.0469076 0.00520599 0)
(-0.0488561 0.00437404 0)
(-0.0504521 0.00347925 0)
(-0.0516732 0.00253409 0)
(-0.0525018 0.00155136 0)
(-0.0529256 0.00054417 0)
(-6.11029e-05 0.000188349 0)
(-0.000465369 0.00117192 0)
(-0.00140538 0.00249527 0)
(-0.00283524 0.00397312 0)
(-0.00473059 0.00547903 0)
(-0.00706977 0.00692206 0)
(-0.00981602 0.00823853 0)
(-0.012921 0.0093858 0)
(-0.0163285 0.0103369 0)
(-0.019977 0.0110764 0)
(-0.0238016 0.0115974 0)
(-0.0277357 0.0118995 0)
(-0.031713 0.0119869 0)
(-0.0356685 0.0118673 0)
(-0.0395392 0.011551 0)
(-0.0432657 0.0110503 0)
(-0.0467919 0.0103788 0)
(-0.0500664 0.0095514 0)
(-0.0530422 0.00858362 0)
(-0.0556772 0.0074918 0)
(-0.0579346 0.0062928 0)
(-0.0597832 0.00500401 0)
(-0.0611972 0.00364331 0)
(-0.0621567 0.00222903 0)
(-0.0626477 0.000779976 0)
(-8.64425e-05 0.000459453 0)
(-0.00061512 0.0019768 0)
(-0.00180345 0.00382637 0)
(-0.00356636 0.00581543 0)
(-0.00585669 0.00780657 0)
(-0.00863982 0.00969744 0)
(-0.0118682 0.011414 0)
(-0.0154841 0.0129052 0)
(-0.0194232 0.0141376 0)
(-0.0236168 0.0150916 0)
(-0.0279927 0.0157579 0)
(-0.0324779 0.0161354 0)
(-0.0369992 0.016229 0)
(-0.0414854 0.0160484 0)
(-0.0458674 0.0156067 0)
(-0.0500797 0.0149197 0)
(-0.054061 0.0140053 0)
(-0.0577544 0.012883 0)
(-0.0611083 0.0115734 0)
(-0.0640765 0.0100982 0)
(-0.0666184 0.0084799 0)
(-0.0686995 0.0067417 0)
(-0.0702914 0.00490748 0)
(-0.0713722 0.00300179 0)
(-0.0719264 0.0010498 0)
(-0.000109695 0.000805698 0)
(-0.00075743 0.00297659 0)
(-0.00218798 0.00544629 0)
(-0.00427904 0.0080196 0)
(-0.00696057 0.0105523 0)
(-0.0101839 0.0129341 0)
(-0.0138894 0.015083 0)
(-0.0180091 0.0169412 0)
(-0.0224699 0.01847 0)
(-0.027195 0.0196463 0)
(-0.0321055 0.0204589 0)
(-0.0371217 0.0209065 0)
(-0.0421644 0.0209948 0)
(-0.0471565 0.0207358 0)
(-0.0520235 0.0201457 0)
(-0.0566949 0.0192442 0)
(-0.0611046 0.0180538 0)
(-0.0651914 0.016599 0)
(-0.0688997 0.014906 0)
(-0.0721796 0.0130021 0)
(-0.0749875 0.010916 0)
(-0.0772863 0.00867718 0)
(-0.0790453 0.00631615 0)
(-0.0802409 0.00386415 0)
(-0.0808564 0.00135325 0)
(-0.000131164 0.00122276 0)
(-0.000892512 0.00416422 0)
(-0.00255783 0.00734817 0)
(-0.00497009 0.0105798 0)
(-0.00803693 0.0137112 0)
(-0.0116952 0.0166269 0)
(-0.0158726 0.0192394 0)
(-0.0204898 0.0214859 0)
(-0.0254644 0.0233239 0)
(-0.0307113 0.0247276 0)
(-0.0361442 0.025685 0)
(-0.0416771 0.0261947 0)
(-0.0472247 0.0262642 0)
(-0.0527046 0.0259079 0)
(-0.0580375 0.0251455 0)
(-0.0631483 0.0240011 0)
(-0.0679666 0.0225021 0)
(-0.0724277 0.0206783 0)
(-0.0764726 0.0185618 0)
(-0.0800484 0.0161863 0)
(-0.0831089 0.0135868 0)
(-0.0856148 0.0107997 0)
(-0.0875335 0.00786226 0)
(-0.0888399 0.00481296 0)
(-0.0895162 0.00169119 0)
(-0.000151223 0.00170685 0)
(-0.00102137 0.00553274 0)
(-0.00291425 0.00952445 0)
(-0.00564043 0.013489 0)
(-0.00908618 0.0172772 0)
(-0.0131739 0.0207704 0)
(-0.0178179 0.0238777 0)
(-0.0229273 0.0265331 0)
(-0.0284094 0.0286916 0)
(-0.0341707 0.0303264 0)
(-0.0401174 0.031425 0)
(-0.0461565 0.0319872 0)
(-0.0521972 0.0320227 0)
(-0.0581518 0.0315489 0)
(-0.0639364 0.0305896 0)
(-0.0694719 0.0291736 0)
(-0.0746843 0.0273335 0)
(-0.0795056 0.0251052 0)
(-0.0838738 0.0225268 0)
(-0.0877339 0.0196386 0)
(-0.0910373 0.0164825 0)
(-0.0937428 0.0131019 0)
(-0.0958165 0.00954142 0)
(-0.0972317 0.00584695 0)
(-0.0979698 0.00206557 0)
(-0.000170236 0.00225493 0)
(-0.00114533 0.00707607 0)
(-0.0032596 0.0119682 0)
(-0.00629323 0.0167408 0)
(-0.010112 0.0212444 0)
(-0.0146239 0.0253593 0)
(-0.0197299 0.0289929 0)
(-0.0253269 0.0320775 0)
(-0.0313119 0.0345675 0)
(-0.0375822 0.0364358 0)
(-0.044036 0.0376709 0)
(-0.0505737 0.0382748 0)
(-0.0570987 0.0382598 0)
(-0.0635183 0.0376474 0)
(-0.0697441 0.0364658 0)
(-0.0756932 0.0347492 0)
(-0.0812886 0.032536 0)
(-0.0864593 0.0298681 0)
(-0.0911412 0.0267904 0)
(-0.0952769 0.02335 0)
(-0.0988162 0.019596 0)
(-0.101716 0.015579 0)
(-0.103942 0.0113513 0)
(-0.105466 0.00696638 0)
(-0.106268 0.0024793 0)
(-0.000188532 0.00286476 0)
(-0.00126574 0.00878945 0)
(-0.00359672 0.0146737 0)
(-0.00693271 0.0203293 0)
(-0.0111198 0.0256077 0)
(-0.0160517 0.0303892 0)
(-0.021616 0.0345808 0)
(-0.0276972 0.0381151 0)
(-0.0341813 0.040947 0)
(-0.0409562 0.0430506 0)
(-0.0479122 0.0444167 0)
(-0.0549427 0.0450502 0)
(-0.0619452 0.0449675 0)
(-0.0688219 0.0441944 0)
(-0.0754805 0.0427648 0)
(-0.0818345 0.0407183 0)
(-0.087804 0.0380998 0)
(-0.0933157 0.034958 0)
(-0.0983034 0.0313445 0)
(-0.102708 0.0273138 0)
(-0.106478 0.0229221 0)
(-0.109569 0.0182279 0)
(-0.111945 0.0132909 0)
(-0.113578 0.00817262 0)
(-0.114447 0.00293606 0)
(-0.000206396 0.0035348 0)
(-0.00138392 0.0106695 0)
(-0.00392852 0.0176368 0)
(-0.00756348 0.0242505 0)
(-0.0121157 0.0303633 0)
(-0.0174648 0.0358565 0)
(-0.0234847 0.0406384 0)
(-0.0300474 0.0446428 0)
(-0.0370278 0.0478267 0)
(-0.044304 0.0501668 0)
(-0.0517581 0.0516576 0)
(-0.0592764 0.0523079 0)
(-0.0667504 0.0521392 0)
(-0.0740776 0.0511828 0)
(-0.0811616 0.0494787 0)
(-0.0879128 0.0470729 0)
(-0.0942487 0.0440173 0)
(-0.100094 0.0403676 0)
(-0.10538 0.0361828 0)
(-0.110048 0.0315247 0)
(-0.114044 0.0264574 0)
(-0.117324 0.0210467 0)
(-0.11985 0.0153604 0)
(-0.121594 0.00946789 0)
(-0.122533 0.00344021 0)
(-0.000224073 0.00426423 0)
(-0.00150108 0.0127144 0)
(-0.00425782 0.0208551 0)
(-0.00819011 0.0285019 0)
(-0.0131058 0.0355089 0)
(-0.0188706 0.0417593 0)
(-0.0253447 0.0471635 0)
(-0.0323872 0.0516582 0)
(-0.0398617 0.0552038 0)
(-0.0476363 0.0577811 0)
(-0.0555847 0.0593892 0)
(-0.0635859 0.0600427 0)
(-0.0715257 0.0597689 0)
(-0.0792967 0.0586058 0)
(-0.0867987 0.0566002 0)
(-0.0939393 0.0538055 0)
(-0.100634 0.050281 0)
(-0.106805 0.0460899 0)
(-0.112383 0.0412991 0)
(-0.117309 0.035978 0)
(-0.121527 0.0301983 0)
(-0.124993 0.024034 0)
(-0.127668 0.0175604 0)
(-0.129524 0.0108549 0)
(-0.130537 0.00399661 0)
(-0.000241775 0.00505282 0)
(-0.00161831 0.0149235 0)
(-0.00458726 0.024328 0)
(-0.00881696 0.0330828 0)
(-0.0140963 0.0410438 0)
(-0.0202768 0.0480966 0)
(-0.0272046 0.054155 0)
(-0.0347259 0.0591598 0)
(-0.0426926 0.0630759 0)
(-0.0509628 0.06589 0)
(-0.0594013 0.0676073 0)
(-0.0678801 0.0682491 0)
(-0.0762791 0.0678501 0)
(-0.0844862 0.066456 0)
(-0.0923979 0.0641214 0)
(-0.099919 0.060908 0)
(-0.106963 0.0568829 0)
(-0.113451 0.0521176 0)
(-0.119314 0.0466869 0)
(-0.12449 0.0406683 0)
(-0.128926 0.0341416 0)
(-0.132574 0.0271881 0)
(-0.135398 0.0198914 0)
(-0.137367 0.0123366 0)
(-0.138459 0.00461049 0)
(-0.000259686 0.00590088 0)
(-0.0017366 0.0172975 0)
(-0.00491924 0.0280562 0)
(-0.00944808 0.037994 0)
(-0.0150927 0.0469687 0)
(-0.0216901 0.0548689 0)
(-0.0290722 0.0616128 0)
(-0.0370719 0.0671463 0)
(-0.045529 0.0714408 0)
(-0.0542914 0.0744898 0)
(-0.063215 0.0763066 0)
(-0.0721648 0.0769206 0)
(-0.0810149 0.0763751 0)
(-0.0896488 0.0747248 0)
(-0.0979598 0.072033 0)
(-0.10585 0.0683706 0)
(-0.113233 0.0638134 0)
(-0.120028 0.0584415 0)
(-0.126165 0.0523383 0)
(-0.131584 0.0455894 0)
(-0.13623 0.0382824 0)
(-0.140057 0.0305068 0)
(-0.143028 0.0223536 0)
(-0.145111 0.0139155 0)
(-0.146285 0.00528722 0)
(-0.000277966 0.00680921 0)
(-0.00185682 0.0198381 0)
(-0.00525596 0.0320422 0)
(-0.0100872 0.0432381 0)
(-0.0161002 0.0532858 0)
(-0.0231169 0.0620776 0)
(-0.0309547 0.069537 0)
(-0.0394323 0.0756166 0)
(-0.0483777 0.0802955 0)
(-0.057628 0.0835761 0)
(-0.0670304 0.0854808 0)
(-0.0764427 0.086049 0)
(-0.0857333 0.0853342 0)
(-0.0947819 0.083401 0)
(-0.103479 0.0803231 0)
(-0.111725 0.076181 0)
(-0.119432 0.0710603 0)
(-0.12652 0.0650503 0)
(-0.132919 0.058243 0)
(-0.138569 0.0507326 0)
(-0.143416 0.0426147 0)
(-0.147416 0.0339863 0)
(-0.15053 0.0249461 0)
(-0.152728 0.0155941 0)
(-0.153988 0.00603214 0)
(-0.00029676 0.00777903 0)
(-0.0019798 0.0225483 0)
(-0.00559947 0.0362896 0)
(-0.0107378 0.048819 0)
(-0.0171236 0.0599985 0)
(-0.024563 0.069725 0)
(-0.0328581 0.0779283 0)
(-0.0418135 0.0845694 0)
(-0.0512441 0.0896365 0)
(-0.0609766 0.0931427 0)
(-0.0708492 0.0951214 0)
(-0.0807126 0.0956236 0)
(-0.09043 0.0947144 0)
(-0.0998775 0.0924703 0)
(-0.108943 0.0889762 0)
(-0.117527 0.0843234 0)
(-0.125539 0.078608 0)
(-0.132902 0.071929 0)
(-0.139547 0.0643876 0)
(-0.145413 0.0560865 0)
(-0.15045 0.0471294 0)
(-0.154613 0.0376208 0)
(-0.157865 0.0276664 0)
(-0.160177 0.0173734 0)
(-0.161524 0.00685026 0)
(-0.000316208 0.00881201 0)
(-0.00210632 0.0254319 0)
(-0.00595171 0.0408035 0)
(-0.0114031 0.0547417 0)
(-0.0181672 0.0671111 0)
(-0.0260337 0.0778139 0)
(-0.0347881 0.0867876 0)
(-0.0442202 0.0940026 0)
(-0.0541319 0.0994588 0)
(-0.0643386 0.103181 0)
(-0.0746699 0.105217 0)
(-0.0849694 0.10563 0)
(-0.0950957 0.104499 0)
(-0.104922 0.101914 0)
(-0.114333 0.0979722 0)
(-0.123231 0.0927772 0)
(-0.131526 0.0864359 0)
(-0.139141 0.0790581 0)
(-0.146009 0.0707543 0)
(-0.152073 0.0616358 0)
(-0.157283 0.0518142 0)
(-0.161596 0.0414015 0)
(-0.164978 0.0305101 0)
(-0.1674 0.0192532 0)
(-0.168837 0.00774599 0)
(-0.000336445 0.00991015 0)
(-0.00223713 0.0284937 0)
(-0.00631461 0.04559 0)
(-0.0120864 0.0610127 0)
(-0.0192355 0.0746292 0)
(-0.0275337 0.0863477 0)
(-0.0367494 0.0961151 0)
(-0.0466563 0.103913 0)
(-0.0570429 0.109755 0)
(-0.0677133 0.113681 0)
(-0.0784879 0.115752 0)
(-0.0892042 0.116049 0)
(-0.099716 0.114667 0)
(-0.109894 0.111708 0)
(-0.119623 0.107285 0)
(-0.128805 0.101516 0)
(-0.137352 0.0945179 0)
(-0.14519 0.0864125 0)
(-0.152254 0.0773199 0)
(-0.15849 0.0673602 0)
(-0.163852 0.0566528 0)
(-0.1683 0.0453164 0)
(-0.1718 0.0334697 0)
(-0.174324 0.0212317 0)
(-0.17585 0.00872277 0)
(-0.000357613 0.0110759 0)
(-0.00237306 0.0317394 0)
(-0.00669017 0.0506566 0)
(-0.0127908 0.0676394 0)
(-0.0203327 0.0825586 0)
(-0.0290679 0.0953298 0)
(-0.0387463 0.10591 0)
(-0.0491249 0.114296 0)
(-0.0599777 0.120516 0)
(-0.0710973 0.124626 0)
(-0.0822954 0.126708 0)
(-0.0934031 0.126858 0)
(-0.104271 0.125189 0)
(-0.114767 0.121821 0)
(-0.124778 0.116883 0)
(-0.134206 0.110506 0)
(-0.142967 0.102821 0)
(-0.150991 0.0939602 0)
(-0.158216 0.0840551 0)
(-0.164594 0.0732339 0)
(-0.17008 0.0616235 0)
(-0.174639 0.0493489 0)
(-0.178241 0.0365345 0)
(-0.180859 0.0233041 0)
(-0.182472 0.00978264 0)
(-0.000379874 0.0123121 0)
(-0.00251498 0.0351757 0)
(-0.00708057 0.056012 0)
(-0.0135201 0.0746307 0)
(-0.0214633 0.0909064 0)
(-0.0306411 0.104764 0)
(-0.040783 0.116172 0)
(-0.051628 0.125145 0)
(-0.0629352 0.131728 0)
(-0.0744851 0.135999 0)
(-0.0860809 0.138058 0)
(-0.0975479 0.138025 0)
(-0.108734 0.13603 0)
(-0.119506 0.132215 0)
(-0.129754 0.126724 0)
(-0.139382 0.119705 0)
(-0.14831 0.111302 0)
(-0.156473 0.101662 0)
(-0.163817 0.0909228 0)
(-0.170296 0.0792238 0)
(-0.175872 0.0666984 0)
(-0.180515 0.0534773 0)
(-0.184197 0.0396896 0)
(-0.186896 0.025463 0)
(-0.18859 0.0109258 0)
(-0.000403416 0.0136222 0)
(-0.00266395 0.0388107 0)
(-0.00748837 0.0616663 0)
(-0.0142783 0.0819963 0)
(-0.0226326 0.0996799 0)
(-0.0322586 0.114652 0)
(-0.0428637 0.126898 0)
(-0.0541675 0.136448 0)
(-0.0659129 0.143373 0)
(-0.0778687 0.147772 0)
(-0.0898293 0.149771 0)
(-0.101615 0.149511 0)
(-0.113072 0.147147 0)
(-0.12407 0.142842 0)
(-0.134498 0.136758 0)
(-0.144268 0.129061 0)
(-0.153306 0.119912 0)
(-0.161553 0.109467 0)
(-0.168961 0.0978774 0)
(-0.175493 0.0852891 0)
(-0.181117 0.0718426 0)
(-0.185808 0.0576738 0)
(-0.189543 0.0429151 0)
(-0.192304 0.0276972 0)
(-0.194071 0.0121501 0)
(-0.000428467 0.01501 0)
(-0.00282121 0.0426536 0)
(-0.0079166 0.0676313 0)
(-0.0150702 0.0897476 0)
(-0.0238466 0.108887 0)
(-0.0339265 0.124997 0)
(-0.0449931 0.138082 0)
(-0.0567445 0.148194 0)
(-0.0689072 0.155429 0)
(-0.0812373 0.159915 0)
(-0.0935213 0.161805 0)
(-0.105576 0.161267 0)
(-0.117246 0.158484 0)
(-0.128404 0.153641 0)
(-0.138946 0.146923 0)
(-0.148788 0.138512 0)
(-0.157866 0.128587 0)
(-0.166128 0.117317 0)
(-0.173538 0.104863 0)
(-0.180064 0.0913796 0)
(-0.185684 0.0770131 0)
(-0.190379 0.0619034 0)
(-0.194133 0.0461853 0)
(-0.196932 0.0299908 0)
(-0.198759 0.0134504 0)
(-0.00045532 0.0164802 0)
(-0.00298835 0.0467153 0)
(-0.00836904 0.0739208 0)
(-0.0159017 0.0978974 0)
(-0.0251125 0.118537 0)
(-0.0356521 0.135801 0)
(-0.0471764 0.149716 0)
(-0.0593605 0.160363 0)
(-0.071913 0.167866 0)
(-0.0845776 0.172386 0)
(-0.0971334 0.174109 0)
(-0.109394 0.173235 0)
(-0.121207 0.169975 0)
(-0.132448 0.164541 0)
(-0.143021 0.157142 0)
(-0.152852 0.147981 0)
(-0.161886 0.137252 0)
(-0.170083 0.125138 0)
(-0.177416 0.111812 0)
(-0.183866 0.0974348 0)
(-0.18942 0.0821576 0)
(-0.194067 0.0661233 0)
(-0.197799 0.0494679 0)
(-0.200605 0.032323 0)
(-0.202475 0.014818 0)
(-0.000484347 0.0180384 0)
(-0.00316737 0.0510089 0)
(-0.00885047 0.0805508 0)
(-0.0167805 0.106461 0)
(-0.0264396 0.128638 0)
(-0.0374444 0.147064 0)
(-0.0494202 0.161791 0)
(-0.0620168 0.172931 0)
(-0.074924 0.180646 0)
(-0.087873 0.185135 0)
(-0.100637 0.186621 0)
(-0.113028 0.185341 0)
(-0.124897 0.181538 0)
(-0.136128 0.175455 0)
(-0.146634 0.167326 0)
(-0.156353 0.157376 0)
(-0.165244 0.145818 0)
(-0.17328 0.132847 0)
(-0.180447 0.118646 0)
(-0.186738 0.103383 0)
(-0.192152 0.0872135 0)
(-0.196688 0.0702819 0)
(-0.200347 0.0527233 0)
(-0.203125 0.0346674 0)
(-0.205015 0.01624 0)
(-0.000516032 0.0196912 0)
(-0.00336083 0.05555 0)
(-0.00936696 0.0875406 0)
(-0.0177159 0.115454 0)
(-0.0278393 0.139201 0)
(-0.0393145 0.158785 0)
(-0.0517322 0.174289 0)
(-0.0647148 0.185867 0)
(-0.0779318 0.193722 0)
(-0.0911027 0.198099 0)
(-0.103995 0.199263 0)
(-0.116424 0.197495 0)
(-0.128245 0.193075 0)
(-0.139354 0.186277 0)
(-0.149677 0.177367 0)
(-0.159167 0.16659 0)
(-0.167798 0.154178 0)
(-0.175561 0.140341 0)
(-0.182457 0.12527 0)
(-0.188493 0.10914 0)
(-0.193682 0.0921075 0)
(-0.198034 0.0743179 0)
(-0.20156 0.0559039 0)
(-0.204265 0.0369907 0)
(-0.206146 0.0176988 0)
(-0.000551009 0.021447 0)
(-0.00357206 0.0603578 0)
(-0.00992633 0.0949134 0)
(-0.01872 0.124899 0)
(-0.029326 0.150238 0)
(-0.0412761 0.170961 0)
(-0.054122 0.187192 0)
(-0.0674556 0.19913 0)
(-0.0809259 0.207034 0)
(-0.0942409 0.211199 0)
(-0.107166 0.211942 0)
(-0.11952 0.20959 0)
(-0.131169 0.204468 0)
(-0.142023 0.196885 0)
(-0.152026 0.187138 0)
(-0.161149 0.175497 0)
(-0.169386 0.162211 0)
(-0.176746 0.147504 0)
(-0.183249 0.131577 0)
(-0.18892 0.114607 0)
(-0.193785 0.0967543 0)
(-0.19787 0.0781601 0)
(-0.201194 0.0589534 0)
(-0.203773 0.0392529 0)
(-0.20561 0.0191714 0)
(-0.000590112 0.0233158 0)
(-0.0038054 0.0654556 0)
(-0.0105386 0.102697 0)
(-0.0198081 0.134818 0)
(-0.0309178 0.161759 0)
(-0.0433462 0.183585 0)
(-0.0566008 0.20047 0)
(-0.0702399 0.212671 0)
(-0.0838916 0.220507 0)
(-0.0972543 0.224338 0)
(-0.110094 0.224542 0)
(-0.122237 0.221497 0)
(-0.133566 0.215577 0)
(-0.144009 0.207133 0)
(-0.153532 0.196491 0)
(-0.162128 0.183949 0)
(-0.169816 0.169775 0)
(-0.176626 0.154203 0)
(-0.182599 0.137443 0)
(-0.187779 0.119675 0)
(-0.19221 0.101057 0)
(-0.195931 0.0817267 0)
(-0.198976 0.0618066 0)
(-0.201368 0.0414065 0)
(-0.20312 0.0206288 0)
(-0.000634446 0.0253104 0)
(-0.00406648 0.0708724 0)
(-0.0112168 0.110926 0)
(-0.0209998 0.14524 0)
(-0.0326373 0.173777 0)
(-0.0455455 0.196648 0)
(-0.0591811 0.214086 0)
(-0.0730665 0.226421 0)
(-0.0868088 0.234048 0)
(-0.1001 0.2374 0)
(-0.11271 0.236924 0)
(-0.12448 0.233062 0)
(-0.135313 0.226239 0)
(-0.145162 0.21685 0)
(-0.154019 0.205256 0)
(-0.161906 0.19178 0)
(-0.168869 0.176708 0)
(-0.174962 0.160286 0)
(-0.180251 0.142729 0)
(-0.184801 0.124217 0)
(-0.188674 0.104906 0)
(-0.191926 0.0849256 0)
(-0.194603 0.0643898 0)
(-0.196741 0.0433968 0)
(-0.198359 0.0220363 0)
(-0.000685479 0.027447 0)
(-0.00436269 0.0766444 0)
(-0.0119776 0.119642 0)
(-0.0223198 0.156199 0)
(-0.0345125 0.186306 0)
(-0.0478981 0.210134 0)
(-0.0618762 0.227991 0)
(-0.0759303 0.240298 0)
(-0.0896483 0.24754 0)
(-0.102719 0.250238 0)
(-0.114925 0.248921 0)
(-0.126127 0.2441 0)
(-0.136257 0.236258 0)
(-0.145299 0.225837 0)
(-0.153277 0.213235 0)
(-0.160249 0.198798 0)
(-0.166288 0.182829 0)
(-0.171481 0.165585 0)
(-0.175916 0.147281 0)
(-0.179683 0.128097 0)
(-0.182864 0.108181 0)
(-0.185531 0.0876552 0)
(-0.187745 0.0666207 0)
(-0.189552 0.0451619 0)
(-0.190982 0.023353 0)
(-0.000745184 0.0297458 0)
(-0.00470377 0.0828172 0)
(-0.0128426 0.128896 0)
(-0.0237992 0.167733 0)
(-0.0365774 0.199358 0)
(-0.0504323 0.224017 0)
(-0.0646983 0.242119 0)
(-0.0788193 0.254193 0)
(-0.0923669 0.260837 0)
(-0.105034 0.262675 0)
(-0.116623 0.26033 0)
(-0.127026 0.254392 0)
(-0.136209 0.245408 0)
(-0.144198 0.233868 0)
(-0.151057 0.220204 0)
(-0.156881 0.204789 0)
(-0.161778 0.187938 0)
(-0.165867 0.169913 0)
(-0.169266 0.15093 0)
(-0.172086 0.131164 0)
(-0.17443 0.110752 0)
(-0.176389 0.0898058 0)
(-0.178037 0.0684102 0)
(-0.179433 0.0466337 0)
(-0.180615 0.0245322 0)
(-0.00081623 0.0322333 0)
(-0.00510256 0.0894483 0)
(-0.0138397 0.138753 0)
(-0.0254775 0.179889 0)
(-0.0388732 0.212943 0)
(-0.0531786 0.23826 0)
(-0.067656 0.25638 0)
(-0.0817091 0.267966 0)
(-0.0949 0.273754 0)
(-0.106936 0.274493 0)
(-0.11765 0.27091 0)
(-0.126978 0.263683 0)
(-0.134932 0.253428 0)
(-0.141588 0.240683 0)
(-0.147057 0.225915 0)
(-0.151476 0.209517 0)
(-0.154994 0.191814 0)
(-0.157763 0.173071 0)
(-0.15993 0.153497 0)
(-0.161631 0.13326 0)
(-0.162989 0.112483 0)
(-0.164112 0.0912616 0)
(-0.165089 0.0696639 0)
(-0.165988 0.0477391 0)
(-0.166859 0.0255228 0)
(-0.000902277 0.0349434 0)
(-0.00557625 0.0966108 0)
(-0.0150054 0.149291 0)
(-0.0274039 0.192719 0)
(-0.0414485 0.227064 0)
(-0.0561687 0.252806 0)
(-0.0707482 0.270651 0)
(-0.0845544 0.281436 0)
(-0.0971503 0.286062 0)
(-0.108273 0.285423 0)
(-0.117801 0.280369 0)
(-0.125727 0.271671 0)
(-0.132127 0.260015 0)
(-0.137133 0.24599 0)
(-0.140911 0.23009 0)
(-0.143648 0.212724 0)
(-0.145534 0.194223 0)
(-0.146756 0.174847 0)
(-0.14749 0.154796 0)
(-0.147897 0.134222 0)
(-0.14812 0.113233 0)
(-0.14828 0.0919049 0)
(-0.148479 0.0702855 0)
(-0.148797 0.0484028 0)
(-0.14929 0.02627 0)
(-0.00100843 0.0379206 0)
(-0.006148 0.104398 0)
(-0.0163869 0.160605 0)
(-0.0296396 0.206281 0)
(-0.0443585 0.241713 0)
(-0.0594304 0.267567 0)
(-0.073956 0.284766 0)
(-0.0872759 0.294367 0)
(-0.0989715 0.29747 0)
(-0.108829 0.29514 0)
(-0.116797 0.288361 0)
(-0.122942 0.278006 0)
(-0.127415 0.264829 0)
(-0.130418 0.249463 0)
(-0.13218 0.232427 0)
(-0.13294 0.214137 0)
(-0.132932 0.19492 0)
(-0.132377 0.175025 0)
(-0.13148 0.154637 0)
(-0.130422 0.133888 0)
(-0.129363 0.112864 0)
(-0.128438 0.0916201 0)
(-0.127759 0.0701804 0)
(-0.127414 0.0485498 0)
(-0.127467 0.026718 0)
(-0.00114196 0.0412236 0)
(-0.00684948 0.11293 0)
(-0.0180463 0.172813 0)
(-0.0322602 0.220635 0)
(-0.0476638 0.25686 0)
(-0.0629796 0.282411 0)
(-0.0772278 0.298496 0)
(-0.0897402 0.306449 0)
(-0.100144 0.307611 0)
(-0.108304 0.303244 0)
(-0.114262 0.294476 0)
(-0.118185 0.282285 0)
(-0.120313 0.267487 0)
(-0.12093 0.250751 0)
(-0.120331 0.232609 0)
(-0.118811 0.213473 0)
(-0.116647 0.193658 0)
(-0.114092 0.173393 0)
(-0.111375 0.152839 0)
(-0.108695 0.132104 0)
(-0.106223 0.111248 0)
(-0.104106 0.0903006 0)
(-0.10246 0.0692612 0)
(-0.10138 0.0481101 0)
(-0.100934 0.0268129 0)
(-0.00131349 0.044931 0)
(-0.00772474 0.122361 0)
(-0.0200654 0.186055 0)
(-0.0353571 0.235838 0)
(-0.051424 0.272439 0)
(-0.0668056 0.297139 0)
(-0.0804552 0.311524 0)
(-0.0917288 0.317277 0)
(-0.100339 0.316027 0)
(-0.106269 0.309252 0)
(-0.109689 0.298235 0)
(-0.110886 0.284051 0)
(-0.11021 0.267569 0)
(-0.108033 0.249477 0)
(-0.104721 0.230305 0)
(-0.100623 0.21045 0)
(-0.0960548 0.190199 0)
(-0.0912969 0.169751 0)
(-0.0865953 0.149239 0)
(-0.0821608 0.128735 0)
(-0.0781714 0.108275 0)
(-0.0747755 0.0878562 0)
(-0.0720937 0.0674541 0)
(-0.0702213 0.0470237 0)
(-0.0692296 0.0265061 0)
(-0.00153909 0.0491498 0)
(-0.00883629 0.132891 0)
(-0.0225521 0.200497 0)
(-0.0390375 0.251928 0)
(-0.0556856 0.288315 0)
(-0.0708446 0.311449 0)
(-0.0834351 0.323413 0)
(-0.0928914 0.326323 0)
(-0.0990702 0.322142 0)
(-0.102124 0.312584 0)
(-0.10239 0.299085 0)
(-0.100302 0.282798 0)
(-0.0963309 0.264627 0)
(-0.0909441 0.245257 0)
(-0.0845784 0.225195 0)
(-0.0776283 0.204803 0)
(-0.0704409 0.184329 0)
(-0.0633153 0.163932 0)
(-0.0565054 0.143702 0)
(-0.0502242 0.123679 0)
(-0.0446485 0.103863 0)
(-0.0399231 0.0842228 0)
(-0.0361649 0.0647071 0)
(-0.0334664 0.0452464 0)
(-0.0318978 0.0257593 0)
(-0.00184392 0.0540278 0)
(-0.0102748 0.144779 0)
(-0.0256488 0.216325 0)
(-0.0434198 0.268896 0)
(-0.0604568 0.30425 0)
(-0.0749338 0.324891 0)
(-0.0858073 0.33356 0)
(-0.0926761 0.332898 0)
(-0.0956215 0.325245 0)
(-0.0950281 0.312558 0)
(-0.0914408 0.296401 0)
(-0.0854651 0.277982 0)
(-0.0777017 0.258203 0)
(-0.0687092 0.237719 0)
(-0.0589852 0.216985 0)
(-0.0489597 0.196309 0)
(-0.0389967 0.175884 0)
(-0.0293993 0.155815 0)
(-0.0204174 0.136147 0)
(-0.0122548 0.116878 0)
(-0.00507674 0.0979737 0)
(0.000983557 0.0793729 0)
(0.00581958 0.060998 0)
(0.00934715 0.0427573 0)
(0.0115013 0.0245493 0)
(-0.00226913 0.0597756 0)
(-0.012175 0.158364 0)
(-0.0295413 0.233734 0)
(-0.0486167 0.286645 0)
(-0.0656575 0.319829 0)
(-0.0787317 0.336796 0)
(-0.0869573 0.341137 0)
(-0.0902262 0.336116 0)
(-0.0889492 0.324474 0)
(-0.0838141 0.308386 0)
(-0.0756137 0.289507 0)
(-0.0651376 0.269047 0)
(-0.053113 0.247862 0)
(-0.0401765 0.226534 0)
(-0.0268668 0.205442 0)
(-0.0136285 0.184812 0)
(-0.000822472 0.164767 0)
(0.0112624 0.145352 0)
(0.0223966 0.126558 0)
(0.0323992 0.108339 0)
(0.0411274 0.090625 0)
(0.0484689 0.0733273 0)
(0.054335 0.0563444 0)
(0.0586556 0.0395658 0)
(0.0613751 0.0228736 0)
(-0.00288467 0.0667007 0)
(-0.0147407 0.174081 0)
(-0.0344634 0.252888 0)
(-0.0546909 0.304896 0)
(-0.0710212 0.334352 0)
(-0.0815821 0.346175 0)
(-0.0858631 0.345023 0)
(-0.0842306 0.334858 0)
(-0.0775505 0.318805 0)
(-0.0668836 0.2992 0)
(-0.0532946 0.277707 0)
(-0.0377524 0.255469 0)
(-0.0210873 0.233234 0)
(-0.00398351 0.211467 0)
(0.0130117 0.190434 0)
(0.0294694 0.170263 0)
(0.0450588 0.150992 0)
(0.059528 0.132596 0)
(0.0726864 0.115011 0)
(0.0843907 0.0981486 0)
(0.0945327 0.0819053 0)
(0.10303 0.0661667 0)
(0.10982 0.0508128 0)
(0.114851 0.0357186 0)
(0.118081 0.0207558 0)
(-0.0038134 0.0752685 0)
(-0.0182827 0.19248 0)
(-0.040683 0.273838 0)
(-0.0615511 0.323039 0)
(-0.0759101 0.346681 0)
(-0.082284 0.351599 0)
(-0.0808611 0.343734 0)
(-0.0727147 0.327756 0)
(-0.0592955 0.30709 0)
(-0.0420829 0.284103 0)
(-0.0224048 0.260356 0)
(-0.00137001 0.236827 0)
(0.0201385 0.214085 0)
(0.0414413 0.192431 0)
(0.0620293 0.171987 0)
(0.0815294 0.152765 0)
(0.0996733 0.13471 0)
(0.116272 0.117726 0)
(0.131192 0.101697 0)
(0.144344 0.0864944 0)
(0.155666 0.0719874 0)
(0.165112 0.0580422 0)
(0.172652 0.0445261 0)
(0.178257 0.0313064 0)
(0.181905 0.0182501 0)
(-0.00527461 0.0862078 0)
(-0.0232689 0.214211 0)
(-0.0484267 0.296334 0)
(-0.0687138 0.339869 0)
(-0.0789663 0.354996 0)
(-0.078712 0.351051 0)
(-0.0692982 0.335373 0)
(-0.0527613 0.313226 0)
(-0.0312271 0.288127 0)
(-0.00657818 0.262277 0)
(0.0196645 0.236974 0)
(0.0463406 0.212913 0)
(0.0726011 0.190416 0)
(0.0978463 0.169573 0)
(0.121666 0.150345 0)
(0.14379 0.132621 0)
(0.164048 0.116252 0)
(0.182337 0.101079 0)
(0.198602 0.0869407 0)
(0.212817 0.0736779 0)
(0.224974 0.0611402 0)
(0.235074 0.0491834 0)
(0.243118 0.03767 0)
(0.249108 0.026467 0)
(0.25304 0.0154443 0)
(-0.00765445 0.100683 0)
(-0.0303555 0.239919 0)
(-0.0576329 0.319431 0)
(-0.0747858 0.353151 0)
(-0.0774757 0.356496 0)
(-0.0672094 0.341795 0)
(-0.0470437 0.31766 0)
(-0.0201691 0.289596 0)
(0.0106425 0.260849 0)
(0.043239 0.233175 0)
(0.0760677 0.207417 0)
(0.108067 0.18388 0)
(0.138546 0.162576 0)
(0.167078 0.143366 0)
(0.193421 0.126045 0)
(0.217454 0.110387 0)
(0.239134 0.0961668 0)
(0.258469 0.0831755 0)
(0.275491 0.0712199 0)
(0.290246 0.0601254 0)
(0.302783 0.0497339 0)
(0.31315 0.0399012 0)
(0.321385 0.0304939 0)
(0.327516 0.0213868 0)
(0.331558 0.01246 0)
(-0.0115741 0.120523 0)
(-0.0402534 0.269849 0)
(-0.0672423 0.340744 0)
(-0.0763694 0.358992 0)
(-0.0662466 0.347099 0)
(-0.0416757 0.320406 0)
(-0.00786603 0.288169 0)
(0.0308988 0.255436 0)
(0.0714739 0.22466 0)
(0.111751 0.196822 0)
(0.150419 0.172133 0)
(0.186725 0.150433 0)
(0.220283 0.131408 0)
(0.250939 0.114704 0)
(0.278678 0.0999766 0)
(0.303566 0.0869139 0)
(0.325709 0.0752432 0)
(0.345228 0.064729 0)
(0.362248 0.0551691 0)
(0.376885 0.0463896 0)
(0.389243 0.0382392 0)
(0.399411 0.0305849 0)
(0.40746 0.0233071 0)
(0.413441 0.0162963 0)
(0.417389 0.00944944 0)
(-0.0177485 0.148551 0)
(-0.0528822 0.302811 0)
(-0.0732999 0.355066 0)
(-0.065851 0.351044 0)
(-0.0357705 0.321361 0)
(0.00765332 0.283168 0)
(0.0572081 0.244929 0)
(0.108126 0.210181 0)
(0.15754 0.179974 0)
(0.203908 0.154235 0)
(0.246527 0.132461 0)
(0.285183 0.114039 0)
(0.319931 0.0983848 0)
(0.35096 0.0849916 0)
(0.378517 0.073436 0)
(0.40286 0.0633721 0)
(0.424238 0.0545189 0)
(0.442881 0.0466481 0)
(0.458989 0.0395727 0)
(0.472737 0.0331381 0)
(0.484272 0.0272141 0)
(0.493713 0.0216898 0)
(0.501154 0.0164679 0)
(0.506665 0.0114608 0)
(0.510292 0.00658759 0)
(-0.0258805 0.189373 0)
(-0.0643843 0.333673 0)
(-0.064398 0.351755 0)
(-0.0272767 0.319466 0)
(0.0304595 0.27279 0)
(0.0954992 0.22702 0)
(0.160217 0.187478 0)
(0.220813 0.155017 0)
(0.275743 0.12886 0)
(0.324677 0.107848 0)
(0.367867 0.0908819 0)
(0.405803 0.077054 0)
(0.439034 0.0656538 0)
(0.468094 0.0561379 0)
(0.493461 0.0480933 0)
(0.515553 0.0412053 0)
(0.534727 0.0352322 0)
(0.55128 0.0299861 0)
(0.565462 0.0253188 0)
(0.57748 0.0211118 0)
(0.587499 0.0172679 0)
(0.595654 0.0137061 0)
(0.602049 0.010357 0)
(0.606761 0.00715918 0)
(0.609842 0.00405659 0)
(-0.0296292 0.246724 0)
(-0.0583986 0.346547 0)
(-0.0119572 0.311495 0)
(0.0703989 0.251533 0)
(0.159094 0.196214 0)
(0.242192 0.152096 0)
(0.315628 0.118863 0)
(0.378757 0.0942126 0)
(0.432443 0.075827 0)
(0.478004 0.0619104 0)
(0.516742 0.0511807 0)
(0.549784 0.042746 0)
(0.578064 0.0359875 0)
(0.602336 0.0304731 0)
(0.623205 0.0258967 0)
(0.641152 0.0220373 0)
(0.656565 0.0187326 0)
(0.669753 0.015861 0)
(0.680965 0.0133293 0)
(0.690401 0.0110649 0)
(0.69822 0.0090095 0)
(0.704547 0.0071155 0)
(0.709477 0.0053427 0)
(0.713083 0.0036561 0)