/*--------------------------------*- C++ -*----------------------------------*\
| =========                 |                                                 |
| \\      /  F ield         | OpenFOAM: The Open Source CFD Toolbox           |
|  \\    /   O peration     | Version:  v2012                                 |
|   \\  /    A nd           | Website:  www.openfoam.com                      |
|    \\/     M anipulation  |                                                 |
\*---------------------------------------------------------------------------*/
FoamFile
{
    version     2.0;
    format      ascii;
    class       volScalarField;
    location    "0.35";
    object      p;
}
// * * * * * * * * * * * * * * * * * * * * * * * * * * * * * * * * * * * * * //

dimensions      [0 2 -2 0 0 0 0];


internalField   nonuniform List<scalar> 
2500
(
6.93033e-06
-0.000554447
-0.00229221
-0.00491544
-0.00800628
-0.0112349
-0.0143441
-0.0171336
-0.019452
-0.0211885
-0.0222652
-0.0226317
-0.0222601
-0.0211417
-0.0192837
-0.0167072
-0.0134451
-0.00954041
-0.00504505
-1.86098e-05
0.00547257
0.0113563
0.0175555
0.0239886
0.0305708
0.0372145
0.0438304
0.0503285
0.0566188
0.0626128
0.0682246
0.0733723
0.0779795
0.0819769
0.0853041
0.0879116
0.0897621
0.0908335
0.0911205
0.0906373
0.0894204
0.0875317
0.0850621
0.0821367
0.0789203
0.0756239
0.0725113
0.0699099
0.0682264
0.0677187
0.000576619
1.34798e-05
-0.00142703
-0.00352215
-0.00597736
-0.00855131
-0.0110416
-0.0132814
-0.0151381
-0.0165108
-0.0173253
-0.0175312
-0.0170981
-0.0160132
-0.0142786
-0.0119092
-0.00893143
-0.00538132
-0.00130359
0.00324959
0.00821952
0.0135418
0.0191474
0.0249629
0.0309118
0.0369153
0.0428928
0.0487633
0.0544459
0.0598614
0.0649333
0.0695889
0.0737613
0.07739
0.0804233
0.0828195
0.0845488
0.0855954
0.085959
0.085657
0.0847268
0.0832284
0.0812464
0.0788933
0.076312
0.0736782
0.071199
0.0691138
0.0677148
0.0672112
0.00231736
0.00145394
3.17794e-06
-0.00188945
-0.00403625
-0.0062541
-0.00838182
-0.0102827
-0.0118446
-0.0129788
-0.0136187
-0.0137174
-0.0132456
-0.0121892
-0.010548
-0.00833359
-0.00556808
-0.00228289
0.00148247
0.00568131
0.0102607
0.0151623
0.020323
0.025676
0.0311512
0.0366764
0.0421779
0.0475813
0.0528127
0.0577999
0.0624731
0.0667666
0.0706197
0.0739783
0.0767965
0.0790377
0.0806768
0.0817011
0.0821126
0.081929
0.0811862
0.0799393
0.0782644
0.0762602
0.0740484
0.0717738
0.0696022
0.0677177
0.0663128
0.0655313
0.00496907
0.00356334
0.00187235
-4.97498e-05
-0.00211926
-0.00419438
-0.00614548
-0.00786285
-0.00925425
-0.010245
-0.010778
-0.0108121
-0.0103213
-0.00929286
-0.00772623
-0.00563154
-0.00302857
5.43886e-05
0.00358144
0.00750997
0.0117914
0.0163721
0.0211938
0.0261947
0.03131
0.0364724
0.0416137
0.0466647
0.0515568
0.056223
0.0605984
0.0646222
0.0682383
0.0713968
0.0740554
0.0761807
0.0777497
0.0787512
0.079187
0.0790735
0.0784425
0.077343
0.0758413
0.0740219
0.0719867
0.0698539
0.0677589
0.0658468
0.0642118
0.0629153
0.0081519
0.00607493
0.00401619
0.00193737
-0.000181156
-0.0022314
-0.00411021
-0.00573268
-0.00702584
-0.0079293
-0.00839609
-0.00839234
-0.0078965
-0.00689843
-0.00539847
-0.00340642
-0.000940725
0.00197246
0.0053
0.00900253
0.0130352
0.0173481
0.0218873
0.0265952
0.0314114
0.0362733
0.0411168
0.0458774
0.0504908
0.0548941
0.0590266
0.062831
0.0662548
0.0692511
0.0717801
0.0738101
0.0753193
0.0762962
0.0767416
0.0766688
0.0761053
0.0750924
0.0736866
0.0719583
0.0699909
0.0678786
0.0657321
0.0636645
0.0616725
0.0597294
0.0115769
0.00877429
0.00627169
0.00394768
0.001687
-0.000428978
-0.00231861
-0.0039188
-0.00517431
-0.00603838
-0.00647438
-0.00645607
-0.0059672
-0.00500102
-0.00355968
-0.00165357
0.00069936
0.00347425
0.00663994
0.0101596
0.0139911
0.018088
0.0223997
0.0268723
0.0314489
0.0360706
0.0406772
0.0452077
0.0496012
0.0537981
0.0577408
0.0613749
0.0646499
0.0675211
0.0699499
0.0719054
0.0733657
0.0743182
0.0747615
0.0747054
0.0741717
0.0731945
0.0718202
0.0701062
0.0681193
0.0659333
0.063639
0.061325
0.0588974
0.05625
0.0150237
0.0114828
0.00849379
0.0058637
0.00339211
0.0011405
-0.000826204
-0.00246344
-0.00373166
-0.00459663
-0.00503167
-0.00501818
-0.00454557
-0.003611
-0.00221912
-0.000381558
0.00188349
0.00455173
0.00759326
0.010973
0.0146511
0.0185837
0.0227228
0.0270173
0.0314135
0.0358554
0.0402856
0.0446459
0.0488782
0.0529251
0.0567311
0.0602437
0.0634138
0.0661974
0.0685564
0.0704597
0.0718841
0.0728153
0.0732488
0.0731902
0.0726557
0.0716719
0.0702758
0.0685134
0.0664369
0.0641035
0.0615888
0.0589643
0.0560551
0.0526872
0.0183207
0.0140505
0.0105555
0.00758106
0.00485174
0.00241464
0.000322034
-0.00139696
-0.00271636
-0.00361315
-0.0040699
-0.00407538
-0.00362469
-0.00271921
-0.00136645
0.000420197
0.00262173
0.00521385
0.00816729
0.0114482
0.0150182
0.0188353
0.0228538
0.0270248
0.0312967
0.0356159
0.0399272
0.0441744
0.0483012
0.0522519
0.0559722
0.0594104
0.062518
0.065251
0.0675709
0.0694452
0.070849
0.0717654
0.0721863
0.0721127
0.071555
0.0705329
0.0690747
0.0672163
0.0649978
0.0624629
0.059677
0.0566994
0.0532848
0.0492009
0.021334
0.0163526
0.0123455
0.00900431
0.00598676
0.00332994
0.00107681
-0.000756209
-0.00215474
-0.00310566
-0.00359991
-0.00363323
-0.00320625
-0.00232463
-0.000998984
0.000755188
0.00291766
0.00546367
0.00836409
0.0115856
0.0150912
0.0188399
0.0227876
0.026887
0.0310884
0.0353397
0.0395871
0.043776
0.047851
0.0517574
0.0554415
0.0588515
0.0619387
0.0646584
0.0669706
0.068841
0.0702423
0.0711543
0.0715649
0.0714703
0.0708753
0.0697928
0.0682434
0.0662544
0.063856
0.0610814
0.057989
0.0546311
0.0506999
0.0459129
0.0239568
0.0182843
0.0137662
0.010046
0.00672115
0.00382196
0.00138477
-0.000584463
-0.00208121
-0.00310098
-0.00364226
-0.00370721
-0.00330178
-0.00243583
-0.00112321
0.000618259
0.00276682
0.00529686
0.00817899
0.0113801
0.0148637
0.0185897
0.0225151
0.0265936
0.0307766
0.0350131
0.0392504
0.0434344
0.0475104
0.0514238
0.0551205
0.0585485
0.061658
0.0644026
0.0667404
0.0686347
0.0700549
0.0709771
0.071385
0.0712698
0.0706307
0.0694743
0.0678144
0.0656709
0.063066
0.0600248
0.0566019
0.0528461
0.0483934
0.042917
0.0261009
0.0197554
0.0147306
0.0106256
0.00698236
0.00382681
0.00119066
-0.000928734
-0.00253524
-0.0036319
-0.00422398
-0.00431956
-0.0039296
-0.00306805
-0.00175204
-1.83751e-06
0.00215903
0.00470383
0.00760256
0.010822
0.0143257
0.0180741
0.0220246
0.0261318
0.0303476
0.0346217
0.0389017
0.0431336
0.0472628
0.0512342
0.054993
0.0584859
0.0616613
0.0644709
0.06687
0.0688188
0.0702831
0.0712349
0.071653
0.0715238
0.0708407
0.0696047
0.0678233
0.0655102
0.0626811
0.0593552
0.0555855
0.0514198
0.046443
0.0402872
0.0276902
0.0206863
0.0151597
0.0106679
0.00670059
0.00328103
0.000437796
-0.00183898
-0.00356039
-0.00473613
-0.00537758
-0.00549826
-0.00511386
-0.00424232
-0.00290399
-0.00112172
0.00107907
0.00367026
0.00662099
0.00989755
0.0134633
0.0172789
0.0213017
0.0254868
0.0297861
0.0341496
0.0385247
0.0428574
0.0470922
0.0511731
0.0550441
0.0586499
0.0619369
0.0648539
0.0673529
0.0693905
0.0709283
0.0719336
0.0723805
0.0722498
0.0715296
0.0702152
0.0683087
0.0658183
0.0627546
0.0591322
0.0550044
0.0504201
0.0449159
0.0380852
0.0286564
0.0210039
0.0149797
0.0101011
0.00580774
0.00212118
-0.000932002
-0.00336789
-0.00520395
-0.00645582
-0.00714045
-0.00727646
-0.00688402
-0.00598493
-0.00460276
-0.00276298
-0.000493049
0.00217738
0.00521635
0.00858944
0.0122596
0.0161871
0.0203294
0.0246413
0.0290749
0.0335796
0.0381026
0.042589
0.0469825
0.0512255
0.0552602
0.0590291
0.0624755
0.065545
0.0681861
0.0703507
0.0719958
0.0730839
0.0735834
0.0734699
0.0727258
0.071341
0.0693123
0.0666432
0.0633401
0.0594141
0.0549202
0.0499099
0.0438731
0.0363654
0.028935
0.0206389
0.0141198
0.00885545
0.00423629
0.000283198
-0.00297867
-0.00557088
-0.00751667
-0.00883714
-0.00955445
-0.00969201
-0.00927433
-0.00832699
-0.00687675
-0.00495175
-0.00258161
0.000202364
0.00336693
0.00687675
0.0106941
0.0147788
0.0190881
0.0235762
0.0281949
0.032893
0.0376171
0.0423113
0.0469176
0.0513767
0.0556286
0.0596128
0.0632695
0.0665402
0.0693691
0.0717034
0.0734948
0.0747
0.0752821
0.0752104
0.0744618
0.0730206
0.0708786
0.0680351
0.0644925
0.0602596
0.0553938
0.0499504
0.0433726
0.0351786
0.0284627
0.0195235
0.0125103
0.00686123
0.00191822
-0.00229837
-0.00576428
-0.00850618
-0.0105527
-0.0119301
-0.0126655
-0.012787
-0.0123234
-0.0113039
-0.00975853
-0.0077182
-0.00521474
-0.00228127
0.0010476
0.00473542
0.00874371
0.0130316
0.0175557
0.02227
0.0271253
0.0320699
0.0370493
0.0420062
0.0468809
0.0516122
0.0561369
0.0603916
0.0643125
0.067837
0.070904
0.0734555
0.0754373
0.0768001
0.0775004
0.0775015
0.0767741
0.0752966
0.0730561
0.0700473
0.0662695
0.0617292
0.0564872
0.0506029
0.0434726
0.0345761
0.0271756
0.0175894
0.0100806
0.00404783
-0.00121611
-0.0056911
-0.00935358
-0.0122351
-0.0143696
-0.0157884
-0.0165234
-0.0166075
-0.0160736
-0.0149548
-0.0132844
-0.0110961
-0.00842399
-0.00530317
-0.00176975
0.00213865
0.00638261
0.0109205
0.0157084
0.0206993
0.0258437
0.0310887
0.0363787
0.0416548
0.0468555
0.0519168
0.0567729
0.0613564
0.0655994
0.0694343
0.0727946
0.0756162
0.0778385
0.0794052
0.080266
0.0803774
0.0797032
0.078216
0.0758973
0.0727375
0.0687326
0.0638871
0.0582653
0.0519318
0.0442337
0.0346115
0.0250073
0.0147659
0.00675814
0.000342218
-0.00523896
-0.0099655
-0.0138145
-0.0168225
-0.0190286
-0.0204694
-0.0211818
-0.0212032
-0.0205711
-0.0193224
-0.0174939
-0.0151221
-0.0122437
-0.00889567
-0.0051157
-0.000942695
0.00358293
0.00841878
0.0135201
0.0188394
0.0243261
0.0299266
0.0355838
0.0412373
0.0468234
0.0522755
0.0575242
0.0624984
0.0671255
0.0713323
0.0750463
0.0781967
0.0807157
0.0825395
0.0836101
0.0838762
0.0832943
0.0818303
0.0794596
0.0761683
0.0719482
0.0668021
0.0607982
0.0540059
0.0457213
0.0353438
0.0218874
0.0109789
0.0024668
-0.00433218
-0.0102262
-0.0151958
-0.0192188
-0.0223369
-0.0245947
-0.0260342
-0.0266975
-0.0266272
-0.0258651
-0.0244524
-0.0224294
-0.0198357
-0.0167106
-0.0130931
-0.0090227
-0.00453943
0.000315234
0.0054981
0.0109637
0.0166639
0.0225475
0.0285597
0.0346423
0.040733
0.0467661
0.0526721
0.0583782
0.0638088
0.0688863
0.0735315
0.0776655
0.0812099
0.0840888
0.0862302
0.0875673
0.0880401
0.0875971
0.0861962
0.0838064
0.0804082
0.0759893
0.07055
0.0641625
0.0569011
0.0480081
0.036839
0.0177408
0.00614962
-0.0028743
-0.0100567
-0.0162585
-0.0214609
-0.0256427
-0.0288512
-0.031137
-0.0325477
-0.0331313
-0.0329357
-0.0320076
-0.0303927
-0.0281351
-0.0252779
-0.0218628
-0.0179313
-0.0135243
-0.00868335
-0.0034508
0.00212944
0.00801132
0.0141462
0.020482
0.0269635
0.0335309
0.0401206
0.0466646
0.0530905
0.0593218
0.0652786
0.0708775
0.0760334
0.0806597
0.08467
0.0879797
0.090507
0.0921757
0.0929159
0.0926664
0.0913766
0.0890075
0.0855332
0.0809364
0.0752146
0.0684432
0.0607019
0.0511753
0.0391724
0.0124863
0.000193018
-0.009352
-0.0169184
-0.0234222
-0.0288452
-0.0331677
-0.0364431
-0.0387287
-0.0400786
-0.040547
-0.0401876
-0.0390529
-0.0371932
-0.0346569
-0.0314907
-0.0277393
-0.0234462
-0.0186543
-0.0134063
-0.00774546
-0.00171621
0.00463499
0.0112591
0.0181038
0.0251131
0.0322263
0.0393784
0.0464993
0.0535138
0.0603417
0.0668985
0.0730951
0.0788395
0.0840372
0.088593
0.0924122
0.0954028
0.0974773
0.0985547
0.0985628
0.0974407
0.0951402
0.0916276
0.0868796
0.0808894
0.073736
0.0655039
0.0553154
0.0424304
0.00603551
-0.00698299
-0.0170604
-0.0250118
-0.0318104
-0.0374393
-0.041881
-0.0451956
-0.0474479
-0.0486994
-0.0490114
-0.0484444
-0.0470569
-0.0449047
-0.0420411
-0.0385163
-0.0343785
-0.0296734
-0.0244457
-0.0187392
-0.012598
-0.00606675
0.000807863
0.00797683
0.0153878
0.0229844
0.0307055
0.0384849
0.0462507
0.0539251
0.0614244
0.0686591
0.0755346
0.0819515
0.0878068
0.0929955
0.0974123
0.100953
0.103518
0.105013
0.105353
0.104465
0.102291
0.0987858
0.0939196
0.0876801
0.080149
0.0714151
0.060534
0.0467126
-0.00170782
-0.0154791
-0.0261022
-0.0344395
-0.0415243
-0.0473417
-0.0518766
-0.0551973
-0.0573774
-0.0584866
-0.0585944
-0.0577692
-0.0560765
-0.0535784
-0.0503332
-0.0463957
-0.0418172
-0.0366461
-0.0309289
-0.0247104
-0.0180351
-0.0109477
-0.00349471
0.00427536
0.0123105
0.0205547
0.0289466
0.0374194
0.0458998
0.0543078
0.0625563
0.0705512
0.0781919
0.0853714
0.0919779
0.0978957
0.103007
0.107196
0.110347
0.112351
0.11311
0.112535
0.110555
0.107113
0.10217
0.0957058
0.0878047
0.0785592
0.0669522
0.052134
-0.0108496
-0.0254059
-0.0365904
-0.0453144
-0.0526748
-0.0586593
-0.0632563
-0.0665437
-0.0686051
-0.0695201
-0.0693682
-0.0682265
-0.0661688
-0.0632642
-0.0595771
-0.0551671
-0.0500891
-0.0443943
-0.0381308
-0.0313443
-0.0240795
-0.0163807
-0.00829363
0.000134175
0.00885178
0.0178039
0.0269299
0.036163
0.045429
0.0546462
0.0637245
0.0725656
0.0810628
0.0891015
0.0965604
0.103312
0.109227
0.114172
0.118018
0.120638
0.121915
0.121745
0.120039
0.116728
0.111758
0.105102
0.096843
0.0870775
0.0747091
0.0588274
-0.0215064
-0.0368862
-0.0486503
-0.0577614
-0.0653841
-0.0715094
-0.0761306
-0.079337
-0.0812242
-0.0818838
-0.0814067
-0.0798808
-0.0773892
-0.0740096
-0.0698129
-0.0648643
-0.0592227
-0.0529422
-0.0460723
-0.0386594
-0.030748
-0.0223816
-0.0136043
-0.00446215
0.00499585
0.0147161
0.0246393
0.0346995
0.0448227
0.054926
0.0649171
0.0746937
0.0841434
0.0931441
0.101564
0.109265
0.116102
0.121926
0.126589
0.129945
0.131856
0.132199
0.130863
0.127764
0.12283
0.116022
0.107424
0.0971323
0.0839651
0.0669463
-0.033808
-0.0500567
-0.0624218
-0.0719197
-0.0797875
-0.0860209
-0.09062
-0.0936875
-0.0953337
-0.0956647
-0.0947852
-0.0927957
-0.0897909
-0.0858578
-0.0810753
-0.0755147
-0.0692393
-0.062306
-0.054766
-0.0466659
-0.0380493
-0.0289582
-0.0194347
-0.009522
0.000733482
0.0112809
0.0220635
0.0330171
0.0440687
0.0551356
0.0661238
0.0769281
0.0874307
0.097502
0.107001
0.115775
0.123665
0.130503
0.136121
0.140351
0.143031
0.144012
0.143161
0.14037
0.135549
0.128643
0.119731
0.10891
0.0949051
0.0766683
-0.0478991
-0.0650714
-0.0780625
-0.0879457
-0.0960366
-0.102337
-0.106856
-0.109714
-0.111038
-0.110953
-0.109579
-0.107033
-0.103422
-0.0988455
-0.093391
-0.0871364
-0.0801501
-0.0724918
-0.0642139
-0.055363
-0.0459812
-0.0361081
-0.0257827
-0.0150445
-0.00393611
0.00749572
0.0191978
0.0311093
0.0431594
0.0552668
0.0673371
0.079263
0.0909223
0.102178
0.11288
0.122863
0.131949
0.139953
0.146682
0.151942
0.155545
0.157312
0.157081
0.154716
0.150103
0.143165
0.133974
0.122628
0.107743
0.0881988
-0.0639432
-0.0821053
-0.0957521
-0.106017
-0.114302
-0.120618
-0.124985
-0.127545
-0.128448
-0.127839
-0.125861
-0.122648
-0.118324
-0.113
-0.106776
-0.0997355
-0.0919533
-0.0834918
-0.0744043
-0.0647364
-0.0545282
-0.0438159
-0.032634
-0.0210173
-0.00900304
0.00336744
0.0160462
0.028977
0.0420933
0.0553161
0.0685528
0.081695
0.0946173
0.107177
0.119214
0.130549
0.140988
0.150324
0.158339
0.16481
0.169515
0.17224
0.17279
0.170993
0.166703
0.159818
0.150398
0.138534
0.122728
0.101776
-0.0821267
-0.10136
-0.115697
-0.126337
-0.134778
-0.141042
-0.145166
-0.147319
-0.147678
-0.146417
-0.143703
-0.139692
-0.134528
-0.128338
-0.121231
-0.113302
-0.104631
-0.0952812
-0.0853079
-0.0747546
-0.0636581
-0.0520499
-0.039959
-0.0274138
-0.0144443
-0.00108514
0.0126229
0.0266302
0.040876
0.0552862
0.0697711
0.0842234
0.0985162
0.112502
0.126012
0.138854
0.150817
0.16167
0.171167
0.179051
0.185064
0.188951
0.190473
0.189416
0.185594
0.178868
0.169283
0.156919
0.140148
0.117677
-0.102665
-0.123068
-0.138138
-0.149142
-0.157687
-0.163812
-0.167577
-0.169185
-0.16885
-0.166779
-0.163169
-0.158205
-0.152052
-0.144856
-0.13674
-0.127807
-0.118143
-0.107814
-0.0968749
-0.0853657
-0.0733189
-0.0607599
-0.0477103
-0.0341904
-0.0202216
-0.00582928
0.00895472
0.0240896
0.0395225
0.0551866
0.0709974
0.086851
0.102621
0.118158
0.133284
0.147797
0.161467
0.174039
0.185238
0.194768
0.202328
0.207614
0.210336
0.210228
0.207051
0.200622
0.190958
0.178123
0.160343
0.136227
-0.125809
-0.147508
-0.163358
-0.174708
-0.183287
-0.189159
-0.192417
-0.193307
-0.192089
-0.189012
-0.184314
-0.178211
-0.170895
-0.162532
-0.153261
-0.143196
-0.132426
-0.12102
-0.109031
-0.0964938
-0.0834355
-0.0698734
-0.0558198
-0.0412847
-0.0262788
-0.0108163
0.00508251
0.0213879
0.0380577
0.0550347
0.0722428
0.0895841
0.106936
0.124148
0.141038
0.157394
0.172968
0.187482
0.200626
0.212065
0.221448
0.228414
0.232611
0.233705
0.231394
0.225435
0.215805
0.202544
0.18371
0.157804
-0.151858
-0.175007
-0.191696
-0.203361
-0.211879
-0.217348
-0.219906
-0.219857
-0.217521
-0.2132
-0.207179
-0.199715
-0.191031
-0.181316
-0.170727
-0.159385
-0.147386
-0.134799
-0.121672
-0.108035
-0.0939065
-0.0792931
-0.064196
-0.0486126
-0.0325404
-0.0159798
0.00106273
0.0185713
0.0365176
0.0548568
0.0735246
0.0924326
0.111465
0.130475
0.149278
0.167655
0.185343
0.202039
0.217401
0.231049
0.242574
0.25155
0.257548
0.260156
0.258987
0.253719
0.244275
0.230656
0.210723
0.182858
-0.181173
-0.205969
-0.223563
-0.235494
-0.243818
-0.248684
-0.250291
-0.249022
-0.245271
-0.239411
-0.231785
-0.222695
-0.212404
-0.201125
-0.189031
-0.176255
-0.162894
-0.149016
-0.134662
-0.119855
-0.104601
-0.0888951
-0.0727228
-0.0560673
-0.0389099
-0.0212349
-0.00303188
0.0157001
0.0349494
0.0546877
0.0748657
0.0954089
0.116213
0.137137
0.158002
0.178583
0.198606
0.217746
0.235626
0.25182
0.265855
0.277231
0.285427
0.289931
0.29025
0.285957
0.276901
0.263021
0.241948
0.211924
-0.214199
-0.240888
-0.259461
-0.271582
-0.279526
-0.283519
-0.283846
-0.280995
-0.275459
-0.267697
-0.258122
-0.247095
-0.234917
-0.221832
-0.208027
-0.193644
-0.17878
-0.163498
-0.14783
-0.131786
-0.115359
-0.0985265
-0.0812581
-0.0635183
-0.0452701
-0.0264781
-0.00711253
0.0128477
0.0334112
0.0545696
0.0762933
0.0985261
0.12118
0.144127
0.167197
0.190166
0.212755
0.234619
0.255349
0.274469
0.291442
0.305677
0.316548
0.323419
0.325663
0.322716
0.314318
0.300318
0.278066
0.245647
-0.251488
-0.280384
-0.300018
-0.312207
-0.31951
-0.322263
-0.320876
-0.315978
-0.30819
-0.298078
-0.286143
-0.27281
-0.258424
-0.243259
-0.227516
-0.211341
-0.194828
-0.178029
-0.160964
-0.143625
-0.125986
-0.108006
-0.0896338
-0.0708125
-0.0514833
-0.0315886
-0.0110758
0.0100995
0.0319697
0.0545506
0.0778368
0.101796
0.126361
0.151427
0.176836
0.202376
0.227765
0.25265
0.276592
0.299068
0.319469
0.337107
0.351231
0.361055
0.36578
0.364663
0.357287
0.343371
0.319915
0.284809
-0.293749
-0.32525
-0.346026
-0.35809
-0.364376
-0.365388
-0.361714
-0.354168
-0.34354
-0.33053
-0.315741
-0.299671
-0.282713
-0.265165
-0.24724
-0.229081
-0.210772
-0.19235
-0.173812
-0.155132
-0.136258
-0.117125
-0.0976583
-0.0777761
-0.0573947
-0.0364312
-0.0148069
0.00754914
0.0306968
0.0546802
0.0795231
0.105223
0.131742
0.159001
0.18687
0.215153
0.243581
0.271797
0.299343
0.325654
0.350047
0.37173
0.389809
0.403316
0.411235
0.412584
0.406731
0.393195
0.368529
0.330381
-0.341898
-0.376514
-0.398498
-0.410131
-0.414861
-0.413441
-0.406712
-0.395745
-0.38154
-0.364964
-0.346736
-0.327433
-0.307494
-0.287235
-0.266873
-0.246537
-0.226293
-0.206151
-0.186084
-0.166033
-0.14592
-0.12565
-0.10512
-0.0842195
-0.0628368
-0.040861
-0.0181843
0.00529404
0.0296648
0.0550049
0.0813721
0.108799
0.137286
0.166791
0.197217
0.228402
0.2601
0.291965
0.323534
0.354208
0.383239
0.409725
0.432612
0.450716
0.462747
0.467413
0.463775
0.451056
0.425214
0.383579
-0.397151
-0.435535
-0.458749
-0.469465
-0.47185
-0.467039
-0.456234
-0.440846
-0.422145
-0.401194
-0.378844
-0.355747
-0.33238
-0.309067
-0.28601
-0.263315
-0.241013
-0.219079
-0.197449
-0.176026
-0.154696
-0.133331
-0.111794
-0.0899434
-0.0676362
-0.0447304
-0.0210869
0.00342793
0.0289392
0.0555603
0.0833883
0.112498
0.142935
0.174703
0.207755
0.241974
0.277156
0.312987
0.349016
0.384632
0.419033
0.451211
0.479941
0.503787
0.521126
0.530252
0.529799
0.51855
0.49164
0.445958
-0.461156
-0.504139
-0.528509
-0.537526
-0.536407
-0.526867
-0.510621
-0.489527
-0.465193
-0.438902
-0.411643
-0.384134
-0.356868
-0.330155
-0.304163
-0.278951
-0.254501
-0.230737
-0.207545
-0.184783
-0.162293
-0.139907
-0.117451
-0.0947485
-0.0716229
-0.0478988
-0.0234032
0.00203205
0.0285694
0.0563624
0.085552
0.116262
0.14859
0.182599
0.218303
0.255652
0.294503
0.334599
0.375533
0.416708
0.457297
0.496202
0.532026
0.563055
0.587259
0.602399
0.606514
0.597724
0.569997
0.519559
-0.536208
-0.584841
-0.610078
-0.616132
-0.609792
-0.59365
-0.570139
-0.5417
-0.510339
-0.477582
-0.444535
-0.411955
-0.380318
-0.349883
-0.320753
-0.292914
-0.266274
-0.240691
-0.215987
-0.191963
-0.168411
-0.145118
-0.121868
-0.0984468
-0.0746417
-0.0502428
-0.0250423
0.00116449
0.028579
0.0573975
0.0878092
0.119991
0.154104
0.190279
0.22861
0.269129
0.311785
0.35641
0.402678
0.450052
0.497722
0.544542
0.588961
0.628976
0.662082
0.685362
0.696036
0.691235
0.663207
0.60713
-0.625592
-0.681165
-0.706551
-0.707584
-0.693456
-0.668085
-0.634887
-0.597033
-0.556977
-0.516468
-0.476689
-0.438376
-0.401931
-0.367511
-0.33511
-0.304606
-0.275808
-0.248485
-0.22238
-0.197229
-0.172764
-0.148723
-0.124844
-0.100875
-0.0765652
-0.0516696
-0.0259455
0.00084862
0.0289539
0.0586112
0.0900602
0.123537
0.159271
0.197475
0.238334
0.28199
0.328513
0.377863
0.429847
0.484048
0.539744
0.595808
0.650599
0.701841
0.746509
0.780855
0.80099
0.802581
0.775278
0.712497
-0.734193
-0.798173
-0.82212
-0.814745
-0.788984
-0.750711
-0.704644
-0.654811
-0.604112
-0.55445
-0.506984
-0.462332
-0.420734
-0.382174
-0.346479
-0.313378
-0.282551
-0.253653
-0.226336
-0.200259
-0.17509
-0.15051
-0.126215
-0.101909
-0.0773073
-0.0521295
-0.0260989
0.00106162
0.0296321
0.0598978
0.0921501
0.126687
0.163813
0.20383
0.247033
0.293694
0.344037
0.398199
0.456182
0.517773
0.582437
0.649183
0.71639
0.781603
0.841285
0.890725
0.924588
0.93641
0.911844
0.841204
-0.869582
-0.943284
-0.962467
-0.941087
-0.897929
-0.841661
-0.778615
-0.713721
-0.65021
-0.589965
-0.533945
-0.482497
-0.435572
-0.392888
-0.354038
-0.318552
-0.285948
-0.255748
-0.227499
-0.200774
-0.175172
-0.150321
-0.125867
-0.10148
-0.0768371
-0.051628
-0.025544
0.00172482
0.0304947
0.061093
0.093862
0.129162
0.167374
0.208898
0.254151
0.303556
0.357523
0.416421
0.480518
0.549909
0.624387
0.703269
0.785156
0.867612
0.946724
1.01678
1.07066
1.09892
1.08102
1.00167
-1.04408
-1.1276
-1.13522
-1.09058
-1.02144
-0.940232
-0.855058
-0.771568
-0.693003
-0.620887
-0.555693
-0.497269
-0.445118
-0.398577
-0.356926
-0.31945
-0.285473
-0.254369
-0.225569
-0.198557
-0.172863
-0.148062
-0.123759
-0.0995844
-0.0751895
-0.0502348
-0.024385
0.00269772
0.0313613
0.0619706
0.0949146
0.130613
0.169522
0.212143
0.25902
0.310745
0.367946
0.431269
0.501333
0.578661
0.66355
0.755873
0.854773
0.958205
1.06224
1.16037
1.24355
1.29831
1.29476
1.20736
-1.27895
-1.368
-1.35029
-1.26714
-1.15945
-1.04412
-0.930692
-0.824881
-0.729257
-0.644412
-0.569903
-0.504783
-0.447909
-0.398112
-0.354289
-0.315438
-0.280666
-0.249192
-0.220329
-0.193476
-0.1681
-0.143726
-0.119924
-0.0962972
-0.0724719
-0.0480887
-0.022792
0.00377723
0.0319915
0.0622459
0.0949684
0.130631
0.16976
0.21295
0.260875
0.314302
0.374095
0.441218
0.516718
0.601673
0.697093
0.803727
0.921723
1.05005
1.18553
1.32154
1.44747
1.54511
1.57103
1.48127
-1.61291
-1.69018
-1.61933
-1.4729
-1.30891
-1.14803
-0.999749
-0.868346
-0.75448
-0.656937
-0.573786
-0.502934
-0.442388
-0.390367
-0.34533
-0.305965
-0.271165
-0.239996
-0.211666
-0.185499
-0.160911
-0.13739
-0.114481
-0.0917681
-0.0688631
-0.045395
-0.020997
0.00470229
0.0320904
0.0615825
0.0936348
0.128758
0.167537
0.210646
0.258875
0.313158
0.374596
0.444491
0.524366
0.61597
0.721235
0.842152
0.980483
1.13715
1.31103
1.49708
1.68468
1.85151
1.93685
1.86472
-2.11671
-2.13163
-1.95349
-1.7052
-1.46123
-1.24197
-1.05307
-0.894446
-0.762876
-0.654171
-0.564257
-0.489556
-0.42707
-0.374349
-0.329409
-0.290647
-0.256766
-0.226707
-0.199598
-0.174712
-0.151433
-0.129228
-0.107632
-0.0862213
-0.0646064
-0.0424147
-0.0192792
0.00517302
0.0313328
0.0596227
0.0905116
0.124533
0.162306
0.204565
0.252187
0.306242
0.368042
0.439204
0.521733
0.618101
0.731323
0.864984
1.02314
1.2099
1.42826
1.67794
1.95233
2.22902
2.4309
2.43194
-2.91883
-2.74199
-2.35914
-1.95416
-1.60135
-1.31131
-1.07885
-0.894525
-0.74847
-0.632176
-0.538834
-0.463167
-0.401144
-0.349687
-0.30644
-0.269579
-0.237676
-0.209601
-0.18444
-0.161449
-0.140004
-0.119578
-0.0997066
-0.0799785
-0.060013
-0.0394485
-0.0179293
0.00490684
0.0294412
0.0560883
0.0853125
0.117647
0.153722
0.194292
0.240282
0.292846
0.353438
0.423922
0.506711
0.604952
0.722774
0.865576
1.04032
1.25569
1.52173
1.84814
2.23977
2.68371
3.10337
3.31484
-4.30829
-3.58025
-2.81236
-2.18395
-1.69676
-1.33087
-1.05968
-0.857422
-0.704479
-0.587032
-0.495395
-0.422749
-0.364248
-0.316408
-0.276671
-0.243127
-0.214322
-0.189125
-0.166642
-0.14615
-0.127052
-0.108844
-0.09109
-0.073402
-0.0554233
-0.0368153
-0.0172459
0.0036241
0.0261525
0.0507298
0.0777957
0.10786
0.141526
0.179532
0.22279
0.272458
0.33003
0.397473
0.477425
0.573485
0.690658
0.835998
1.01953
1.25553
1.56431
1.97281
2.50869
3.1901
4.01477
4.80843
-7.0462
-4.67305
-3.13913
-2.23595
-1.63553
-1.22712
-0.948418
-0.752887
-0.611065
-0.505266
-0.424414
-0.361288
-0.311043
-0.27033
-0.236764
-0.208597
-0.184516
-0.163511
-0.144786
-0.127701
-0.111731
-0.096429
-0.0814121
-0.0663378
-0.0508917
-0.0347753
-0.0176959
0.000645419
0.0205644
0.0424056
0.0665574
0.0934704
0.123681
0.157843
0.196774
0.241515
0.293424
0.354318
0.426676
0.513986
0.621293
0.756118
0.930002
1.16132
1.48062
1.9368
2.59636
3.5721
5.1944
7.6784
-11.6814
-5.75834
-2.98805
-1.87143
-1.28235
-0.928273
-0.706878
-0.559705
-0.455635
-0.378755
-0.320182
-0.274478
-0.238106
-0.208647
-0.184374
-0.164013
-0.146594
-0.131362
-0.117715
-0.105164
-0.0932998
-0.0817761
-0.0702896
-0.0585686
-0.0463621
-0.0334307
-0.0195398
-0.00444943
0.0120927
0.0303608
0.0506623
0.073351
0.0988447
0.127649
0.160389
0.197854
0.241067
0.291381
0.350637
0.421419
0.507502
0.614666
0.75228
0.936875
1.20041
1.60434
2.26055
3.4718
6.35801
12.4032
)
;

boundaryField
{
    movingWall
    {
        type            zeroGradient;
    }
    fixedWalls
    {
        type            zeroGradient;
    }
    frontAndBack
    {
        type            empty;
    }
}


// ************************************************************************* //
