/*--------------------------------*- C++ -*----------------------------------*\
| =========                 |                                                 |
| \\      /  F ield         | OpenFOAM: The Open Source CFD Toolbox           |
|  \\    /   O peration     | Version:  v2012                                 |
|   \\  /    A nd           | Website:  www.openfoam.com                      |
|    \\/     M anipulation  |                                                 |
\*---------------------------------------------------------------------------*/
FoamFile
{
    version     2.0;
    format      ascii;
    class       volVectorField;
    location    "0.35";
    object      U;
}
// * * * * * * * * * * * * * * * * * * * * * * * * * * * * * * * * * * * * * //

dimensions      [0 1 -1 0 0 0 0];


internalField   nonuniform List<vector> 
2500
(
(3.26613e-05 -3.28235e-05 0)
(9.87575e-05 -4.07271e-05 0)
(0.000137313 -2.09835e-05 0)
(0.000106241 7.85434e-06 0)
(-8.73576e-06 3.77361e-05 0)
(-0.000206061 6.53562e-05 0)
(-0.000478395 8.94028e-05 0)
(-0.000815913 0.000109463 0)
(-0.00120767 0.000125512 0)
(-0.0016424 0.000137689 0)
(-0.00210894 0.000146199 0)
(-0.0025965 0.000151274 0)
(-0.00309476 0.000153155 0)
(-0.00359404 0.000152082 0)
(-0.00408527 0.000148296 0)
(-0.00456004 0.000142029 0)
(-0.00501066 0.00013351 0)
(-0.0054301 0.000122964 0)
(-0.00581207 0.00011061 0)
(-0.00615096 9.66663e-05 0)
(-0.00644187 8.13496e-05 0)
(-0.00668065 6.4877e-05 0)
(-0.00686386 4.74684e-05 0)
(-0.00698879 2.93479e-05 0)
(-0.00705352 1.07456e-05 0)
(-0.0070569 -8.10084e-06 0)
(-0.00699859 -2.69459e-05 0)
(-0.00687909 -4.55351e-05 0)
(-0.00669975 -6.36048e-05 0)
(-0.00646278 -8.08833e-05 0)
(-0.00617131 -9.70912e-05 0)
(-0.00582938 -0.000111944 0)
(-0.00544193 -0.000125152 0)
(-0.00501484 -0.000136429 0)
(-0.00455486 -0.000145488 0)
(-0.00406963 -0.000152049 0)
(-0.00356761 -0.000155845 0)
(-0.00305802 -0.00015662 0)
(-0.00255078 -0.000154139 0)
(-0.0020564 -0.00014819 0)
(-0.00158586 -0.000138587 0)
(-0.00115041 -0.000125184 0)
(-0.000761421 -0.000107887 0)
(-0.000430018 -8.66939e-05 0)
(-0.000166605 -6.17857e-05 0)
(1.99577e-05 -3.3752e-05 0)
(0.000123732 -4.07502e-06 0)
(0.000144904 2.37915e-05 0)
(9.98211e-05 4.17753e-05 0)
(3.2126e-05 3.20584e-05 0)
(4.1073e-05 -9.9245e-05 0)
(9.39005e-05 -9.30354e-05 0)
(4.54659e-05 1.44739e-05 0)
(-0.000168782 0.00016185 0)
(-0.000575812 0.000318366 0)
(-0.00117697 0.00046801 0)
(-0.00195988 0.000602455 0)
(-0.00290431 0.000717638 0)
(-0.00398556 0.000811819 0)
(-0.00517674 0.000884535 0)
(-0.00645015 0.000936061 0)
(-0.00777827 0.000967109 0)
(-0.00913428 0.000978657 0)
(-0.0104925 0.000971845 0)
(-0.0118288 0.000947917 0)
(-0.0131204 0.000908177 0)
(-0.0143464 0.000853965 0)
(-0.0154878 0.000786646 0)
(-0.0165271 0.000707602 0)
(-0.0174491 0.000618226 0)
(-0.0182403 0.000519931 0)
(-0.0188892 0.000414147 0)
(-0.0193866 0.000302334 0)
(-0.019725 0.00018598 0)
(-0.0198993 6.66143e-05 0)
(-0.0199064 -5.41928e-05 0)
(-0.0197456 -0.000174825 0)
(-0.0194183 -0.000293619 0)
(-0.0189285 -0.000408869 0)
(-0.0182823 -0.000518829 0)
(-0.0174885 -0.000621726 0)
(-0.0165582 -0.000715768 0)
(-0.015505 -0.000799166 0)
(-0.014345 -0.000870152 0)
(-0.0130964 -0.000927006 0)
(-0.0117799 -0.00096808 0)
(-0.0104182 -0.000991835 0)
(-0.00903587 -0.000996876 0)
(-0.0076591 -0.000981995 0)
(-0.00631538 -0.000946222 0)
(-0.00503302 -0.000888894 0)
(-0.00384059 -0.000809755 0)
(-0.00276616 -0.000709116 0)
(-0.00183624 -0.000588129 0)
(-0.00107423 -0.000449298 0)
(-0.000498226 -0.000297465 0)
(-0.000117601 -0.000141649 0)
(7.24762e-05 1.65057e-06 0)
(0.000102954 0.000101861 0)
(4.21592e-05 9.98323e-05 0)
(2.24896e-05 -0.000139323 0)
(-1.00581e-05 -4.58045e-05 0)
(-0.000234133 0.000239606 0)
(-0.000706064 0.000609317 0)
(-0.00145168 0.0010029 0)
(-0.00247251 0.00138401 0)
(-0.00375276 0.00173109 0)
(-0.00526533 0.00203205 0)
(-0.00697613 0.00228052 0)
(-0.00884705 0.00247378 0)
(-0.010838 0.00261134 0)
(-0.0129085 0.0026942 0)
(-0.0150187 0.00272433 0)
(-0.0171298 0.00270436 0)
(-0.0192052 0.00263734 0)
(-0.0212102 0.0025266 0)
(-0.0231126 0.00237568 0)
(-0.0248831 0.00218827 0)
(-0.0264949 0.00196815 0)
(-0.0279243 0.00171917 0)
(-0.0291504 0.00144529 0)
(-0.0301557 0.00115052 0)
(-0.0309255 0.000838964 0)
(-0.0314486 0.000514838 0)
(-0.0317169 0.000182448 0)
(-0.031726 -0.000153783 0)
(-0.0314748 -0.000489313 0)
(-0.0309656 -0.000819486 0)
(-0.0302048 -0.00113954 0)
(-0.029202 -0.00144464 0)
(-0.0279708 -0.00172987 0)
(-0.0265287 -0.00199031 0)
(-0.0248965 -0.00222109 0)
(-0.0230991 -0.0024174 0)
(-0.0211645 -0.00257462 0)
(-0.0191243 -0.00268838 0)
(-0.0170131 -0.00275466 0)
(-0.0148682 -0.00276992 0)
(-0.0127291 -0.00273121 0)
(-0.0106369 -0.00263636 0)
(-0.00863362 -0.0024842 0)
(-0.00676115 -0.00227488 0)
(-0.0050601 -0.00201033 0)
(-0.00356805 -0.00169497 0)
(-0.00231738 -0.00133694 0)
(-0.00133233 -0.000950144 0)
(-0.00062482 -0.000557616 0)
(-0.000188771 -0.000196615 0)
(7.10037e-06 7.28218e-05 0)
(2.53628e-05 0.000146506 0)
(-4.9085e-06 -0.000112319 0)
(-0.000153905 0.000164518 0)
(-0.00060021 0.000710378 0)
(-0.00137359 0.00138019 0)
(-0.00248874 0.00208582 0)
(-0.00394303 0.0027699 0)
(-0.00571582 0.0033958 0)
(-0.00777375 0.00394124 0)
(-0.0100752 0.00439348 0)
(-0.0125733 0.0047461 0)
(-0.0152183 0.00499702 0)
(-0.0179594 0.00514706 0)
(-0.0207463 0.0051991 0)
(-0.0235298 0.00515742 0)
(-0.0262627 0.00502728 0)
(-0.0289004 0.00481464 0)
(-0.0314016 0.00452596 0)
(-0.0337279 0.00416804 0)
(-0.0358448 0.00374797 0)
(-0.0377212 0.00327304 0)
(-0.0393302 0.00275075 0)
(-0.0406487 0.00218875 0)
(-0.0416578 0.0015949 0)
(-0.0423428 0.000977253 0)
(-0.0426934 0.000344056 0)
(-0.0427038 -0.000296232 0)
(-0.0423726 -0.000934941 0)
(-0.0417033 -0.0015632 0)
(-0.0407039 -0.00217197 0)
(-0.0393873 -0.00275207 0)
(-0.0377714 -0.00329423 0)
(-0.0358786 -0.00378921 0)
(-0.0337365 -0.00422785 0)
(-0.0313769 -0.00460122 0)
(-0.0288363 -0.00490075 0)
(-0.0261555 -0.00511843 0)
(-0.0233789 -0.00524696 0)
(-0.0205543 -0.00528004 0)
(-0.0177319 -0.00521261 0)
(-0.0149641 -0.00504118 0)
(-0.0123038 -0.00476431 0)
(-0.00980348 -0.00438318 0)
(-0.00751357 -0.00390241 0)
(-0.0054804 -0.00333131 0)
(-0.00374372 -0.00268571 0)
(-0.00233359 -0.0019909 0)
(-0.00126619 -0.00128603 0)
(-0.000538783 -0.000630016 0)
(-0.000129787 -0.000110765 0)
(-5.91332e-07 0.000130283 0)
(-3.3698e-05 -3.34141e-06 0)
(-0.000310105 0.000567909 0)
(-0.00100049 0.00145852 0)
(-0.00209843 0.00249801 0)
(-0.00360091 0.00357605 0)
(-0.00549725 0.0046167 0)
(-0.00775978 0.00556887 0)
(-0.0103482 0.00639973 0)
(-0.0132138 0.00708937 0)
(-0.0163021 0.00762694 0)
(-0.0195553 0.00800811 0)
(-0.0229144 0.00823313 0)
(-0.0263201 0.00830559 0)
(-0.0297146 0.00823147 0)
(-0.0330422 0.00801847 0)
(-0.0362502 0.00767555 0)
(-0.0392892 0.00721258 0)
(-0.0421137 0.00664011 0)
(-0.0446823 0.00596921 0)
(-0.046958 0.00521139 0)
(-0.0489085 0.00437847 0)
(-0.0505061 0.00348264 0)
(-0.0517283 0.00253639 0)
(-0.0525576 0.00155254 0)
(-0.0529816 0.000544215 0)
(-0.0529935 -0.000475115 0)
(-0.0525917 -0.00149167 0)
(-0.0517803 -0.00249138 0)
(-0.0505692 -0.0034599 0)
(-0.0489739 -0.00438274 0)
(-0.0470156 -0.00524531 0)
(-0.0447215 -0.00603304 0)
(-0.0421241 -0.00673161 0)
(-0.0392617 -0.00732708 0)
(-0.0361776 -0.00780617 0)
(-0.0329202 -0.0081565 0)
(-0.0295421 -0.00836697 0)
(-0.0260998 -0.00842808 0)
(-0.0226527 -0.00833242 0)
(-0.019262 -0.00807521 0)
(-0.0159898 -0.00765497 0)
(-0.0128975 -0.00707441 0)
(-0.0100437 -0.0063416 0)
(-0.00748251 -0.00547165 0)
(-0.00526069 -0.00448905 0)
(-0.00341507 -0.00343104 0)
(-0.00196836 -0.00235252 0)
(-0.000925126 -0.00133197 0)
(-0.000280035 -0.000480184 0)
(-2.81838e-05 3.54827e-05 0)
(-6.11695e-05 0.000188482 0)
(-0.000465868 0.00117304 0)
(-0.00140688 0.00249779 0)
(-0.00283826 0.00397725 0)
(-0.00473563 0.00548481 0)
(-0.00707731 0.00692945 0)
(-0.0098265 0.00824739 0)
(-0.0129348 0.00939594 0)
(-0.0163459 0.0103481 0)
(-0.0199984 0.0110884 0)
(-0.023827 0.0116101 0)
(-0.0277654 0.0119125 0)
(-0.031747 0.012 0)
(-0.0357067 0.0118802 0)
(-0.0395815 0.0115635 0)
(-0.0433119 0.0110622 0)
(-0.0468419 0.0103899 0)
(-0.0501198 0.00956154 0)
(-0.0530987 0.00859263 0)
(-0.0557363 0.00749953 0)
(-0.057996 0.00629914 0)
(-0.0598464 0.00500886 0)
(-0.0612617 0.0036466 0)
(-0.062222 0.00223071 0)
(-0.0627132 0.000780019 0)
(-0.0627275 -0.00068617 0)
(-0.0622634 -0.00214813 0)
(-0.0613253 -0.00358574 0)
(-0.0599247 -0.00497854 0)
(-0.058079 -0.00630586 0)
(-0.0558126 -0.00754692 0)
(-0.0531561 -0.0086811 0)
(-0.0501466 -0.00968807 0)
(-0.0468275 -0.0105482 0)
(-0.0432479 -0.0112428 0)
(-0.0394625 -0.0117545 0)
(-0.0355308 -0.012068 0)
(-0.0315166 -0.0121702 0)
(-0.0274869 -0.0120512 0)
(-0.0235108 -0.0117048 0)
(-0.0196582 -0.0111296 0)
(-0.0159981 -0.01033 0)
(-0.0125969 -0.00931806 0)
(-0.0095162 -0.00811489 0)
(-0.00681026 -0.00675371 0)
(-0.00452393 -0.00528331 0)
(-0.00268868 -0.00377285 0)
(-0.00131936 -0.0023173 0)
(-0.000430576 -0.00104492 0)
(-5.4604e-05 -0.000139217 0)
(-8.65381e-05 0.00045988 0)
(-0.000615783 0.00197878 0)
(-0.00180537 0.00383031 0)
(-0.00357015 0.00582152 0)
(-0.00586289 0.00781483 0)
(-0.00864896 0.00970778 0)
(-0.0118807 0.0114263 0)
(-0.0155004 0.0129191 0)
(-0.0194437 0.0141529 0)
(-0.0236417 0.0151079 0)
(-0.0280222 0.015775 0)
(-0.0325121 0.0161529 0)
(-0.0370382 0.0162466 0)
(-0.0415291 0.0160657 0)
(-0.0459156 0.0156235 0)
(-0.0501324 0.0149356 0)
(-0.0541177 0.0140202 0)
(-0.057815 0.0128966 0)
(-0.0611723 0.0115854 0)
(-0.0641434 0.0101085 0)
(-0.0666878 0.00848837 0)
(-0.0687708 0.00674817 0)
(-0.0703641 0.00491186 0)
(-0.0714458 0.00300401 0)
(-0.0720003 0.00104983 0)
(-0.0720189 -0.000924878 0)
(-0.0714999 -0.00289375 0)
(-0.0704483 -0.00482989 0)
(-0.0688764 -0.00670602 0)
(-0.0668035 -0.00849459 0)
(-0.0642563 -0.010168 0)
(-0.0612684 -0.0116987 0)
(-0.0578806 -0.0130599 0)
(-0.0541403 -0.0142255 0)
(-0.0501017 -0.0151709 0)
(-0.0458246 -0.0158733 0)
(-0.0413746 -0.0163126 0)
(-0.0368216 -0.0164718 0)
(-0.0322393 -0.0163381 0)
(-0.0277036 -0.0159038 0)
(-0.0232917 -0.0151676 0)
(-0.0190799 -0.0141356 0)
(-0.015142 -0.0128234 0)
(-0.0115475 -0.0112582 0)
(-0.00835891 -0.00948146 0)
(-0.00563051 -0.0075523 0)
(-0.00340429 -0.00555217 0)
(-0.00170738 -0.00358932 0)
(-0.000575859 -0.00180471 0)
(-7.90078e-05 -0.000390884 0)
(-0.000109817 0.000806498 0)
(-0.000758241 0.00297963 0)
(-0.00219029 0.00545194 0)
(-0.00428353 0.008028 0)
(-0.00696783 0.0105635 0)
(-0.0101945 0.0129478 0)
(-0.0139038 0.0150991 0)
(-0.0180278 0.0169593 0)
(-0.0224931 0.0184898 0)
(-0.0272231 0.0196674 0)
(-0.0321387 0.0204809 0)
(-0.03716 0.0209289 0)
(-0.0422078 0.0210173 0)
(-0.047205 0.020758 0)
(-0.052077 0.0201672 0)
(-0.0567531 0.0192646 0)
(-0.0611672 0.0180729 0)
(-0.0652581 0.0166164 0)
(-0.06897 0.0149213 0)
(-0.0722531 0.0130152 0)
(-0.0750637 0.0109267 0)
(-0.0773646 0.0086854 0)
(-0.0791251 0.0063217 0)
(-0.0803216 0.00386695 0)
(-0.0809374 0.00135326 0)
(-0.0809629 -0.00118651 0)
(-0.080396 -0.00371876 0)
(-0.0792422 -0.0062093 0)
(-0.0775144 -0.00862341 0)
(-0.0752334 -0.0109261 0)
(-0.0724274 -0.0130822 0)
(-0.0691326 -0.015057 0)
(-0.0653927 -0.0168164 0)
(-0.0612587 -0.0183274 0)
(-0.0567886 -0.0195588 0)
(-0.0520469 -0.020482 0)
(-0.0471041 -0.0210714 0)
(-0.0420357 -0.021306 0)
(-0.0369214 -0.0211697 0)
(-0.0318436 -0.0206529 0)
(-0.0268862 -0.0197538 0)
(-0.0221326 -0.0184801 0)
(-0.0176647 -0.0168508 0)
(-0.01356 -0.0148982 0)
(-0.00989054 -0.0126711 0)
(-0.00672095 -0.0102377 0)
(-0.00410514 -0.00768958 0)
(-0.00208368 -0.00514532 0)
(-0.000714273 -0.00275489 0)
(-0.000101383 -0.000715432 0)
(-0.000131307 0.001224 0)
(-0.000893449 0.00416851 0)
(-0.00256048 0.00735578 0)
(-0.00497518 0.0105908 0)
(-0.00804511 0.0137256 0)
(-0.0117071 0.0166444 0)
(-0.0158886 0.0192597 0)
(-0.0205105 0.0215086 0)
(-0.02549 0.0233486 0)
(-0.0307421 0.0247538 0)
(-0.0361804 0.0257122 0)
(-0.0417187 0.0262225 0)
(-0.0472719 0.026292 0)
(-0.0527572 0.0259352 0)
(-0.0580953 0.025172 0)
(-0.0632111 0.0240263 0)
(-0.0680341 0.0225255 0)
(-0.0724995 0.0206996 0)
(-0.0765482 0.0185807 0)
(-0.0801273 0.0162025 0)
(-0.0831907 0.0136001 0)
(-0.0856987 0.0108098 0)
(-0.087619 0.00786905 0)
(-0.0889264 0.00481636 0)
(-0.089603 0.00169117 0)
(-0.0896385 -0.00146617 0)
(-0.0890307 -0.0046144 0)
(-0.0877848 -0.00771153 0)
(-0.0859144 -0.010715 0)
(-0.083441 -0.0135818 0)
(-0.0803945 -0.0162689 0)
(-0.0768126 -0.0187336 0)
(-0.0727414 -0.0209341 0)
(-0.0682347 -0.02283 0)
(-0.0633539 -0.0243831 0)
(-0.0581674 -0.0255582 0)
(-0.0527502 -0.0263241 0)
(-0.0471828 -0.0266549 0)
(-0.0415503 -0.0265307 0)
(-0.0359414 -0.0259396 0)
(-0.0304466 -0.024879 0)
(-0.0251571 -0.0233574 0)
(-0.0201626 -0.0213963 0)
(-0.0155498 -0.0190326 0)
(-0.0114007 -0.0163211 0)
(-0.00779154 -0.0133375 0)
(-0.00478898 -0.0101816 0)
(-0.00244757 -0.00698016 0)
(-0.000846166 -0.00388944 0)
(-0.000122046 -0.00110883 0)
(-0.000151384 0.0017086 0)
(-0.00102242 0.00553842 0)
(-0.00291717 0.00953425 0)
(-0.00564602 0.013503 0)
(-0.00909512 0.0172951 0)
(-0.0131868 0.020792 0)
(-0.0178352 0.0239025 0)
(-0.0229495 0.0265607 0)
(-0.0284369 0.0287216 0)
(-0.0342037 0.0303581 0)
(-0.040156 0.0314578 0)
(-0.0462009 0.0320206 0)
(-0.0522473 0.0320561 0)
(-0.0582076 0.0315817 0)
(-0.0639977 0.0306213 0)
(-0.0695383 0.0292037 0)
(-0.0747556 0.0273615 0)
(-0.0795813 0.0251307 0)
(-0.0839536 0.0225494 0)
(-0.0878171 0.0196579 0)
(-0.0911234 0.0164983 0)
(-0.0938312 0.0131139 0)
(-0.0959064 0.00954949 0)
(-0.0973226 0.00585098 0)
(-0.098061 0.00206551 0)
(-0.0981106 -0.00175872 0)
(-0.0974685 -0.00557247 0)
(-0.0961399 -0.00932559 0)
(-0.0941387 -0.0129672 0)
(-0.0914868 -0.0164461 0)
(-0.0882149 -0.0197108 0)
(-0.0843622 -0.0227103 0)
(-0.0799765 -0.0253945 0)
(-0.0751139 -0.0277151 0)
(-0.0698384 -0.0296264 0)
(-0.064222 -0.031086 0)
(-0.0583434 -0.0320565 0)
(-0.052288 -0.0325063 0)
(-0.0461462 -0.0324114 0)
(-0.0400126 -0.0317569 0)
(-0.0339849 -0.0305384 0)
(-0.0281617 -0.0287644 0)
(-0.0226415 -0.0264583 0)
(-0.0175207 -0.0236603 0)
(-0.0128923 -0.02043 0)
(-0.00884477 -0.0168492 0)
(-0.00545805 -0.0130244 0)
(-0.00280097 -0.00908849 0)
(-0.000972789 -0.00520267 0)
(-0.000141408 -0.00156768 0)
(-0.000170411 0.00225723 0)
(-0.00114645 0.00708326 0)
(-0.00326273 0.0119803 0)
(-0.00629921 0.0167578 0)
(-0.0101215 0.0212661 0)
(-0.0146376 0.0253852 0)
(-0.0197483 0.0290225 0)
(-0.0253504 0.0321104 0)
(-0.0313409 0.034603 0)
(-0.0376168 0.0364732 0)
(-0.0440765 0.0377096 0)
(-0.0506201 0.038314 0)
(-0.0571511 0.038299 0)
(-0.0635764 0.0376858 0)
(-0.0698078 0.036503 0)
(-0.0757623 0.0347844 0)
(-0.0813626 0.0325687 0)
(-0.0865379 0.0298978 0)
(-0.0912238 0.0268167 0)
(-0.095363 0.0233725 0)
(-0.0989052 0.0196143 0)
(-0.101808 0.015593 0)
(-0.104035 0.0113606 0)
(-0.10556 0.00697104 0)
(-0.106362 0.00247918 0)
(-0.10643 -0.00205865 0)
(-0.10576 -0.00658499 0)
(-0.104358 -0.0110413 0)
(-0.102237 -0.0153682 0)
(-0.0994194 -0.0195056 0)
(-0.0959357 -0.0233935 0)
(-0.0918265 -0.0269721 0)
(-0.0871405 -0.0301827 0)
(-0.0819356 -0.0329684 0)
(-0.0762783 -0.0352753 0)
(-0.0702433 -0.0370535 0)
(-0.063913 -0.0382584 0)
(-0.0573772 -0.0388524 0)
(-0.0507314 -0.0388063 0)
(-0.0440764 -0.0381012 0)
(-0.0375169 -0.0367302 0)
(-0.0311598 -0.034701 0)
(-0.0251126 -0.0320374 0)
(-0.0194822 -0.0287819 0)
(-0.0143731 -0.0249978 0)
(-0.00988683 -0.0207715 0)
(-0.00611714 -0.016215 0)
(-0.00314713 -0.0114661 0)
(-0.00109578 -0.00669021 0)
(-0.000159888 -0.00208948 0)
(-0.000188717 0.00286764 0)
(-0.00126692 0.00879824 0)
(-0.0036 0.0146883 0)
(-0.00693896 0.0203496 0)
(-0.0111297 0.0256333 0)
(-0.016066 0.0304196 0)
(-0.0216351 0.0346154 0)
(-0.0277215 0.0381534 0)
(-0.0342112 0.0409881 0)
(-0.0409919 0.0430939 0)
(-0.0479539 0.0444614 0)
(-0.0549904 0.0450955 0)
(-0.0619989 0.0450126 0)
(-0.0688815 0.0442386 0)
(-0.0755457 0.0428074 0)
(-0.0819051 0.0407587 0)
(-0.0878796 0.0381374 0)
(-0.0933959 0.0349921 0)
(-0.0983876 0.0313747 0)
(-0.102796 0.0273395 0)
(-0.106569 0.0229432 0)
(-0.109662 0.0182438 0)
(-0.11204 0.0133016 0)
(-0.113674 0.00817791 0)
(-0.114543 0.00293588 0)
(-0.114635 -0.00236002 0)
(-0.113945 -0.00764393 0)
(-0.112479 -0.0128487 0)
(-0.110248 -0.0179063 0)
(-0.107276 -0.0227477 0)
(-0.103594 -0.0273038 0)
(-0.099241 -0.0315057 0)
(-0.0942676 -0.0352855 0)
(-0.0887328 -0.0385775 0)
(-0.0827047 -0.0413189 0)
(-0.0762605 -0.0434515 0)
(-0.0694861 -0.0449228 0)
(-0.0624752 -0.0456883 0)
(-0.0553286 -0.0457125 0)
(-0.0481532 -0.0449716 0)
(-0.0410611 -0.0434553 0)
(-0.0341676 -0.041169 0)
(-0.0275901 -0.038136 0)
(-0.0214463 -0.0343999 0)
(-0.0158533 -0.0300262 0)
(-0.010926 -0.025105 0)
(-0.00677235 -0.0197524 0)
(-0.00348991 -0.0141109 0)
(-0.00121689 -0.00834945 0)
(-0.000177879 -0.0026727 0)
(-0.000206586 0.0035383 0)
(-0.00138513 0.01068 0)
(-0.00393188 0.017654 0)
(-0.00756987 0.0242741 0)
(-0.0121258 0.030393 0)
(-0.0174793 0.0358915 0)
(-0.0235041 0.0406781 0)
(-0.0300721 0.0446865 0)
(-0.0370581 0.0478735 0)
(-0.0443402 0.050216 0)
(-0.0518003 0.0517082 0)
(-0.0593246 0.0523592 0)
(-0.0668046 0.0521902 0)
(-0.0741377 0.0512328 0)
(-0.0812273 0.0495268 0)
(-0.0879839 0.0471185 0)
(-0.0943247 0.0440596 0)
(-0.100174 0.040406 0)
(-0.105465 0.0362167 0)
(-0.110136 0.0315537 0)
(-0.114136 0.026481 0)
(-0.117418 0.0210646 0)
(-0.119945 0.0153724 0)
(-0.12169 0.00947381 0)
(-0.122629 0.00343997 0)
(-0.12275 -0.00265639 0)
(-0.122048 -0.00874094 0)
(-0.120527 -0.0147379 0)
(-0.118198 -0.0205704 0)
(-0.115084 -0.0261602 0)
(-0.111216 -0.031429 0)
(-0.106632 -0.0362984 0)
(-0.101384 -0.040691 0)
(-0.0955315 -0.0445315 0)
(-0.0891432 -0.0477477 0)
(-0.0822987 -0.0502722 0)
(-0.0750869 -0.052044 0)
(-0.0676053 -0.0530103 0)
(-0.0599599 -0.0531286 0)
(-0.0522639 -0.0523689 0)
(-0.0446367 -0.0507162 0)
(-0.0372028 -0.0481723 0)
(-0.0300897 -0.0447588 0)
(-0.0234271 -0.0405187 0)
(-0.0173446 -0.0355191 0)
(-0.0119715 -0.0298524 0)
(-0.00743036 -0.0236382 0)
(-0.00383338 -0.017023 0)
(-0.00133787 -0.0101798 0)
(-0.000195742 -0.00331675 0)
(-0.000224265 0.00426835 0)
(-0.0015023 0.0127265 0)
(-0.00426121 0.020875 0)
(-0.00819653 0.0285289 0)
(-0.013116 0.0355427 0)
(-0.0188852 0.0417989 0)
(-0.0253641 0.0472083 0)
(-0.0324119 0.0517074 0)
(-0.0398919 0.0552564 0)
(-0.0476724 0.0578362 0)
(-0.0556267 0.0594459 0)
(-0.0636338 0.0600999 0)
(-0.0715795 0.0598258 0)
(-0.0793563 0.0586615 0)
(-0.0868639 0.0566538 0)
(-0.0940097 0.0538562 0)
(-0.100709 0.050328 0)
(-0.106884 0.0461326 0)
(-0.112467 0.0413368 0)
(-0.117396 0.0360101 0)
(-0.121617 0.0302246 0)
(-0.125085 0.0240539 0)
(-0.127762 0.0175737 0)
(-0.129618 0.0108614 0)
(-0.130632 0.0039963 0)
(-0.130789 -0.00294079 0)
(-0.130082 -0.00986714 0)
(-0.128516 -0.0166983 0)
(-0.126102 -0.0233484 0)
(-0.122859 -0.0297303 0)
(-0.118818 -0.0357558 0)
(-0.114018 -0.0413371 0)
(-0.108509 -0.0463866 0)
(-0.102351 -0.050819 0)
(-0.0956132 -0.0545519 0)
(-0.0883778 -0.057508 0)
(-0.0807356 -0.0596165 0)
(-0.0727879 -0.0608155 0)
(-0.0646456 -0.0610542 0)
(-0.0564281 -0.060295 0)
(-0.0482628 -0.0585167 0)
(-0.0402833 -0.0557162 0)
(-0.032628 -0.0519119 0)
(-0.0254388 -0.0471452 0)
(-0.0188592 -0.0414829 0)
(-0.0130328 -0.0350193 0)
(-0.00809797 -0.0278765 0)
(-0.00418158 -0.0202051 0)
(-0.00146039 -0.0121825 0)
(-0.000213803 -0.00402198 0)
(-0.000241965 0.00505755 0)
(-0.00161951 0.0149373 0)
(-0.00459059 0.0243504 0)
(-0.00882329 0.0331132 0)
(-0.0141063 0.0410816 0)
(-0.0202911 0.0481409 0)
(-0.0272237 0.0542049 0)
(-0.0347502 0.0592144 0)
(-0.0427223 0.0631342 0)
(-0.0509981 0.0659509 0)
(-0.0594424 0.0676698 0)
(-0.067927 0.0683122 0)
(-0.0763317 0.0679128 0)
(-0.0845445 0.0665173 0)
(-0.0924615 0.0641804 0)
(-0.0999877 0.0609637 0)
(-0.107036 0.0569345 0)
(-0.113529 0.0521644 0)
(-0.119396 0.0467282 0)
(-0.124575 0.0407036 0)
(-0.129013 0.0341703 0)
(-0.132664 0.0272099 0)
(-0.13549 0.019906 0)
(-0.13746 0.0123437 0)
(-0.138552 0.00461012 0)
(-0.13875 -0.00320574 0)
(-0.138049 -0.0110129 0)
(-0.136449 -0.0187185 0)
(-0.133961 -0.0262277 0)
(-0.130604 -0.033444 0)
(-0.126406 -0.04027 0)
(-0.121405 -0.0466074 0)
(-0.11565 -0.0523586 0)
(-0.109201 -0.0574273 0)
(-0.102127 -0.0617206 0)
(-0.0945121 -0.06515 0)
(-0.086448 -0.0676341 0)
(-0.0780399 -0.0691006 0)
(-0.0694033 -0.0694886 0)
(-0.060664 -0.068752 0)
(-0.0519573 -0.0668613 0)
(-0.0434263 -0.0638073 0)
(-0.035221 -0.0596034 0)
(-0.0274959 -0.0542879 0)
(-0.020409 -0.0479264 0)
(-0.0141196 -0.0406136 0)
(-0.00878187 -0.0324742 0)
(-0.00453844 -0.0236625 0)
(-0.00158605 -0.0143611 0)
(-0.000232359 -0.00478957 0)
(-0.000259869 0.00590622 0)
(-0.00173776 0.0173129 0)
(-0.00492246 0.0280812 0)
(-0.0094542 0.0380278 0)
(-0.0151024 0.0470104 0)
(-0.0217039 0.0549177 0)
(-0.0290906 0.0616675 0)
(-0.0370952 0.0672061 0)
(-0.0455576 0.0715045 0)
(-0.0543254 0.0745564 0)
(-0.0632546 0.0763748 0)
(-0.0722099 0.0769894 0)
(-0.0810655 0.0764434 0)
(-0.0897048 0.0747914 0)
(-0.0980208 0.0720971 0)
(-0.105916 0.0684311 0)
(-0.113303 0.0638694 0)
(-0.120102 0.0584923 0)
(-0.126244 0.0523832 0)
(-0.131665 0.0456277 0)
(-0.136314 0.0383136 0)
(-0.140143 0.0305305 0)
(-0.143115 0.0223694 0)
(-0.1452 0.0139233 0)
(-0.146374 0.0052868 0)
(-0.146621 -0.00344322 0)
(-0.145935 -0.0121678 0)
(-0.144314 -0.0207858 0)
(-0.141767 -0.0291937 0)
(-0.138311 -0.0372858 0)
(-0.133973 -0.0449549 0)
(-0.12879 -0.0520928 0)
(-0.122807 -0.0585908 0)
(-0.116084 -0.0643417 0)
(-0.108691 -0.0692407 0)
(-0.100709 -0.0731876 0)
(-0.0922343 -0.0760889 0)
(-0.0833737 -0.0778605 0)
(-0.0742472 -0.0784303 0)
(-0.064987 -0.0777413 0)
(-0.0557361 -0.0757547 0)
(-0.0466478 -0.0724529 0)
(-0.0378837 -0.0678425 0)
(-0.029612 -0.0619575 0)
(-0.0220058 -0.0548607 0)
(-0.015241 -0.0466465 0)
(-0.00948853 -0.0374412 0)
(-0.00490771 -0.0274031 0)
(-0.00171635 -0.0167207 0)
(-0.000251683 -0.00562152 0)
(-0.000278139 0.00681512 0)
(-0.00185792 0.0198551 0)
(-0.00525901 0.0320696 0)
(-0.010093 0.043275 0)
(-0.0161093 0.0533313 0)
(-0.02313 0.0621306 0)
(-0.0309721 0.0695964 0)
(-0.0394544 0.0756813 0)
(-0.0484047 0.0803644 0)
(-0.0576601 0.083648 0)
(-0.0670678 0.0855544 0)
(-0.0764852 0.0861232 0)
(-0.085781 0.0854077 0)
(-0.0948346 0.0834728 0)
(-0.103536 0.0803921 0)
(-0.111787 0.0762461 0)
(-0.119498 0.0711206 0)
(-0.12659 0.0651049 0)
(-0.132993 0.0582912 0)
(-0.138645 0.0507737 0)
(-0.143495 0.0426481 0)
(-0.147497 0.0340117 0)
(-0.150612 0.024963 0)
(-0.152812 0.0156023 0)
(-0.154071 0.00603167 0)
(-0.154375 -0.00364479 0)
(-0.153713 -0.0133205 0)
(-0.152084 -0.0228862 0)
(-0.149494 -0.0322301 0)
(-0.145959 -0.0412375 0)
(-0.141502 -0.0497915 0)
(-0.136157 -0.0577736 0)
(-0.129969 -0.0650641 0)
(-0.122993 -0.0715438 0)
(-0.1153 -0.0770958 0)
(-0.106969 -0.0816067 0)
(-0.0980984 -0.0849699 0)
(-0.0887964 -0.0870879 0)
(-0.0791873 -0.0878756 0)
(-0.0694091 -0.0872634 0)
(-0.0596128 -0.0852008 0)
(-0.0499618 -0.0816601 0)
(-0.04063 -0.0766395 0)
(-0.0317999 -0.0701661 0)
(-0.0236606 -0.0622991 0)
(-0.0164056 -0.0531311 0)
(-0.0102241 -0.0427897 0)
(-0.005293 -0.0314372 0)
(-0.00185271 -0.0192684 0)
(-0.000272032 -0.00652059 0)
(-0.000296922 0.00778549 0)
(-0.00198082 0.0225668 0)
(-0.00560229 0.0363193 0)
(-0.0107432 0.0488588 0)
(-0.017132 0.0600474 0)
(-0.0245751 0.069782 0)
(-0.0328742 0.0779922 0)
(-0.0418339 0.0846388 0)
(-0.0512691 0.0897103 0)
(-0.0610063 0.0932195 0)
(-0.0708837 0.0952 0)
(-0.0807518 0.0957027 0)
(-0.0904741 0.0947929 0)
(-0.0999262 0.0925468 0)
(-0.108996 0.0890496 0)
(-0.117584 0.0843928 0)
(-0.1256 0.0786722 0)
(-0.132967 0.0719871 0)
(-0.139615 0.0644389 0)
(-0.145484 0.0561302 0)
(-0.150523 0.0471649 0)
(-0.154688 0.0376477 0)
(-0.157941 0.0276844 0)
(-0.160254 0.0173821 0)
(-0.161601 0.00684978 0)
(-0.161967 -0.00380164 0)
(-0.161341 -0.0144584 0)
(-0.15972 -0.0250039 0)
(-0.157106 -0.0353182 0)
(-0.153513 -0.045278 0)
(-0.14896 -0.0547571 0)
(-0.14348 -0.0636262 0)
(-0.137111 -0.0717547 0)
(-0.12991 -0.079011 0)
(-0.12194 -0.0852648 0)
(-0.113284 -0.0903889 0)
(-0.104037 -0.0942621 0)
(-0.094309 -0.0967718 0)
(-0.0842285 -0.0978179 0)
(-0.0739384 -0.0973162 0)
(-0.0635978 -0.0952023 0)
(-0.0533801 -0.0914361 0)
(-0.0434721 -0.0860048 0)
(-0.0340713 -0.0789273 0)
(-0.0253838 -0.0702568 0)
(-0.017622 -0.0600832 0)
(-0.0109945 -0.0485347 0)
(-0.00569773 -0.0357773 0)
(-0.00199649 -0.0220131 0)
(-0.00029365 -0.00749025 0)
(-0.000316353 0.00881896 0)
(-0.00210724 0.0254518 0)
(-0.00595426 0.0408352 0)
(-0.0114079 0.0547842 0)
(-0.0181749 0.0671633 0)
(-0.0260446 0.0778745 0)
(-0.0348026 0.0868554 0)
(-0.0442385 0.0940763 0)
(-0.0541543 0.0995369 0)
(-0.0643654 0.103263 0)
(-0.0747009 0.1053 0)
(-0.0850048 0.105714 0)
(-0.0951354 0.104582 0)
(-0.104965 0.101995 0)
(-0.114381 0.0980498 0)
(-0.123282 0.0928503 0)
(-0.131581 0.0865037 0)
(-0.139199 0.0791194 0)
(-0.14607 0.0708084 0)
(-0.152137 0.0616819 0)
(-0.157349 0.0518518 0)
(-0.161664 0.04143 0)
(-0.165047 0.030529 0)
(-0.167469 0.0192625 0)
(-0.168906 0.00774551 0)
(-0.169341 -0.00390475 0)
(-0.168763 -0.0155682 0)
(-0.167165 -0.0271213 0)
(-0.164548 -0.0384367 0)
(-0.160921 -0.0493831 0)
(-0.156302 -0.0598247 0)
(-0.150715 -0.0696225 0)
(-0.144199 -0.078634 0)
(-0.136803 -0.086715 0)
(-0.128589 -0.0937212 0)
(-0.119636 -0.0995105 0)
(-0.110038 -0.103945 0)
(-0.0999056 -0.106896 0)
(-0.0893698 -0.108247 0)
(-0.0785784 -0.107894 0)
(-0.0676979 -0.10576 0)
(-0.056912 -0.101786 0)
(-0.0464205 -0.0959487 0)
(-0.0364366 -0.088255 0)
(-0.0271848 -0.0787504 0)
(-0.0188977 -0.0675206 0)
(-0.0118054 -0.0546934 0)
(-0.00612523 -0.0404383 0)
(-0.00214903 -0.0249652 0)
(-0.000316775 -0.00853466 0)
(-0.000336571 0.00991754 0)
(-0.00223793 0.0285147 0)
(-0.00631683 0.0456236 0)
(-0.0120906 0.0610576 0)
(-0.0192421 0.0746842 0)
(-0.0275432 0.0864116 0)
(-0.036762 0.0961864 0)
(-0.0466724 0.103991 0)
(-0.0570625 0.109837 0)
(-0.0677366 0.113766 0)
(-0.078515 0.11584 0)
(-0.089235 0.116137 0)
(-0.0997506 0.114753 0)
(-0.109932 0.111793 0)
(-0.119665 0.107367 0)
(-0.12885 0.101592 0)
(-0.1374 0.0945888 0)
(-0.145241 0.0864767 0)
(-0.152308 0.0773765 0)
(-0.158546 0.0674085 0)
(-0.16391 0.0566921 0)
(-0.168359 0.0453462 0)
(-0.17186 0.0334896 0)
(-0.174385 0.0212414 0)
(-0.175911 0.00872232 0)
(-0.176422 -0.00394513 0)
(-0.175902 -0.0166353 0)
(-0.174345 -0.0292187 0)
(-0.171749 -0.0415613 0)
(-0.168117 -0.0535242 0)
(-0.163463 -0.064963 0)
(-0.157807 -0.0757286 0)
(-0.151181 -0.085667 0)
(-0.143629 -0.0946211 0)
(-0.135209 -0.102432 0)
(-0.125996 -0.108941 0)
(-0.11608 -0.113993 0)
(-0.105572 -0.11744 0)
(-0.0946038 -0.119145 0)
(-0.0833274 -0.118988 0)
(-0.071916 -0.116869 0)
(-0.0605636 -0.112714 0)
(-0.0494833 -0.106481 0)
(-0.0389049 -0.0981635 0)
(-0.0290724 -0.0877978 0)
(-0.0202404 -0.075463 0)
(-0.0126622 -0.0612852 0)
(-0.00657874 -0.0454371 0)
(-0.00231163 -0.0281368 0)
(-0.000341646 -0.00965867 0)
(-0.000357719 0.0110837 0)
(-0.00237372 0.0317614 0)
(-0.00669201 0.0506917 0)
(-0.0127943 0.0676864 0)
(-0.0203382 0.0826161 0)
(-0.0290758 0.0953964 0)
(-0.0387569 0.105985 0)
(-0.0491383 0.114377 0)
(-0.0599941 0.120601 0)
(-0.0711168 0.124715 0)
(-0.0823181 0.126799 0)
(-0.093429 0.126949 0)
(-0.1043 0.125279 0)
(-0.114799 0.121909 0)
(-0.124813 0.116968 0)
(-0.134244 0.110585 0)
(-0.143008 0.102894 0)
(-0.151034 0.094027 0)
(-0.158261 0.0841139 0)
(-0.164641 0.073284 0)
(-0.170129 0.0616643 0)
(-0.174689 0.0493799 0)
(-0.178292 0.0365552 0)
(-0.180911 0.0233143 0)
(-0.182524 0.00978225 0)
(-0.183114 -0.00391403 0)
(-0.182666 -0.0176444 0)
(-0.18117 -0.0312744 0)
(-0.17862 -0.0446644 0)
(-0.175016 -0.0576686 0)
(-0.170365 -0.0701349 0)
(-0.164681 -0.0819044 0)
(-0.157991 -0.0928118 0)
(-0.15033 -0.102687 0)
(-0.141751 -0.111355 0)
(-0.132322 -0.11864 0)
(-0.122131 -0.124369 0)
(-0.111285 -0.128372 0)
(-0.0999153 -0.130491 0)
(-0.0881772 -0.130583 0)
(-0.0762502 -0.128524 0)
(-0.0643377 -0.124219 0)
(-0.0526666 -0.117608 0)
(-0.0414839 -0.108667 0)
(-0.0310545 -0.0974174 0)
(-0.0216569 -0.0839314 0)
(-0.0135702 -0.0683313 0)
(-0.00706152 -0.0507926 0)
(-0.00248562 -0.0315416 0)
(-0.000368508 -0.0108678 0)
(-0.000379956 0.0123202 0)
(-0.0025155 0.0351986 0)
(-0.00708201 0.0560484 0)
(-0.0135228 0.0746793 0)
(-0.0214677 0.0909658 0)
(-0.0306473 0.104832 0)
(-0.0407913 0.116249 0)
(-0.0516385 0.125228 0)
(-0.062948 0.131816 0)
(-0.0745005 0.13609 0)
(-0.0860988 0.138152 0)
(-0.0975683 0.138119 0)
(-0.108757 0.136123 0)
(-0.119532 0.132306 0)
(-0.129782 0.126812 0)
(-0.139412 0.119787 0)
(-0.148342 0.111378 0)
(-0.156508 0.10173 0)
(-0.163853 0.0909835 0)
(-0.170333 0.0792756 0)
(-0.175911 0.0667405 0)
(-0.180555 0.0535093 0)
(-0.184238 0.039711 0)
(-0.186937 0.0254737 0)
(-0.188632 0.0109255 0)
(-0.189305 -0.00380327 0)
(-0.18894 -0.0185793 0)
(-0.187525 -0.0332646 0)
(-0.185051 -0.0477149 0)
(-0.181511 -0.0617789 0)
(-0.176907 -0.0752974 0)
(-0.171245 -0.0881025 0)
(-0.164543 -0.100018 0)
(-0.15683 -0.110861 0)
(-0.148149 -0.12044 0)
(-0.138561 -0.128561 0)
(-0.128147 -0.13503 0)
(-0.11701 -0.139656 0)
(-0.10528 -0.142253 0)
(-0.0931132 -0.142654 0)
(-0.0806933 -0.140709 0)
(-0.0682334 -0.136298 0)
(-0.0559738 -0.129335 0)
(-0.0441797 -0.119776 0)
(-0.0331383 -0.107628 0)
(-0.0231541 -0.0929479 0)
(-0.0145347 -0.0758551 0)
(-0.00757687 -0.0565259 0)
(-0.00267239 -0.0351949 0)
(-0.000397623 -0.0121683 0)
(-0.000403472 0.0136305 0)
(-0.00266431 0.0388342 0)
(-0.00748937 0.0617037 0)
(-0.0142802 0.0820461 0)
(-0.0226356 0.0997408 0)
(-0.0322629 0.114722 0)
(-0.0428695 0.126976 0)
(-0.0541749 0.136534 0)
(-0.065922 0.143463 0)
(-0.0778795 0.147866 0)
(-0.089842 0.149866 0)
(-0.10163 0.149607 0)
(-0.113089 0.147242 0)
(-0.124088 0.142934 0)
(-0.134518 0.136847 0)
(-0.14429 0.129145 0)
(-0.153329 0.11999 0)
(-0.161578 0.109537 0)
(-0.168987 0.0979395 0)
(-0.17552 0.0853421 0)
(-0.181146 0.0718858 0)
(-0.185837 0.0577066 0)
(-0.189573 0.0429371 0)
(-0.192334 0.0277081 0)
(-0.194102 0.0121499 0)
(-0.194859 -0.00360564 0)
(-0.19459 -0.0194235 0)
(-0.193278 -0.0351634 0)
(-0.190911 -0.0506783 0)
(-0.187476 -0.0658125 0)
(-0.182968 -0.0804009 0)
(-0.177385 -0.0942678 0)
(-0.170734 -0.107227 0)