/*--------------------------------*- C++ -*----------------------------------*\
| =========                 |                                                 |
| \\      /  F ield         | OpenFOAM: The Open Source CFD Toolbox           |
|  \\    /   O peration     | Version:  v2012                                 |
|   \\  /    A nd           | Website:  www.openfoam.com                      |
|    \\/     M anipulation  |                                                 |
\*---------------------------------------------------------------------------*/
FoamFile
{
    version     2.0;
    format      ascii;
    class       volScalarField;
    location    "0.3";
    object      p;
}
// * * * * * * * * * * * * * * * * * * * * * * * * * * * * * * * * * * * * * //

dimensions      [0 2 -2 0 0 0 0];


internalField   nonuniform List<scalar> 
2500
(
6.35805e-06
-0.000555336
-0.00229294
-0.00491581
-0.0080062
-0.0112343
-0.014343
-0.017132
-0.01945
-0.0211861
-0.0222626
-0.0226288
-0.0222571
-0.0211386
-0.0192807
-0.0167043
-0.0134424
-0.00953799
-0.00504296
-1.69073e-05
0.00547384
0.0113571
0.0175558
0.0239884
0.03057
0.0372131
0.0438285
0.0503261
0.0566159
0.0626094
0.0682208
0.0733681
0.077975
0.0819722
0.0852994
0.0879067
0.0897573
0.0908288
0.0911159
0.0906331
0.0894165
0.0875282
0.0850591
0.0821341
0.0789182
0.0756223
0.0725101
0.069909
0.0682257
0.067718
0.000575602
1.24672e-05
-0.00142786
-0.00352269
-0.00597754
-0.00855109
-0.011041
-0.0132803
-0.0151367
-0.0165091
-0.0173233
-0.017529
-0.0170959
-0.0160109
-0.0142763
-0.011907
-0.00892935
-0.00537945
-0.001302
0.00325086
0.00822042
0.0135424
0.0191475
0.0249625
0.030911
0.036914
0.0428911
0.0487611
0.0544433
0.0598584
0.0649299
0.0695853
0.0737574
0.077386
0.0804191
0.0828153
0.0845447
0.0855914
0.0859551
0.0856533
0.0847235
0.0832254
0.0812438
0.078891
0.0763102
0.0736768
0.0711979
0.069113
0.0677141
0.0672106
0.00231602
0.0014527
2.13927e-06
-0.00189022
-0.0040367
-0.0062542
-0.00838157
-0.0102821
-0.0118437
-0.0129776
-0.0136173
-0.0137159
-0.0132439
-0.0121875
-0.0105462
-0.00833187
-0.00556648
-0.00228145
0.00148368
0.00568225
0.0102613
0.0151626
0.0203229
0.0256755
0.0311504
0.0366752
0.0421763
0.0475793
0.0528104
0.0577973
0.0624702
0.0667634
0.0706163
0.0739748
0.0767929
0.0790341
0.0806732
0.0816977
0.0821092
0.0819259
0.0811833
0.0799367
0.0782622
0.0762583
0.0740469
0.0717726
0.0696012
0.067717
0.0663122
0.0655309
0.00496733
0.00356179
0.00187103
-5.07986e-05
-0.00212
-0.0041948
-0.00614557
-0.00786263
-0.00925374
-0.0102443
-0.010777
-0.0108109
-0.01032
-0.00929153
-0.00772489
-0.00563025
-0.00302736
5.54718e-05
0.00358235
0.00751065
0.0117918
0.0163722
0.0211937
0.0261943
0.0313092
0.0364713
0.0416122
0.0466629
0.0515547
0.0562206
0.0605958
0.0646194
0.0682353
0.0713937
0.0740522
0.0761775
0.0777466
0.0787482
0.0791841
0.0790708
0.07844
0.0773408
0.0758394
0.0740203
0.0719855
0.069853
0.0677583
0.0658464
0.0642115
0.0629152
0.00814969
0.006073
0.00401453
0.001936
-0.00018221
-0.00223214
-0.00411064
-0.00573282
-0.00702571
-0.00792893
-0.00839552
-0.0083916
-0.00789564
-0.00689751
-0.00539752
-0.0034055
-0.000939858
0.00197323
0.00530063
0.00900299
0.0130354
0.0173481
0.021887
0.0265947
0.0314106
0.0362722
0.0411154
0.0458757
0.0504889
0.0548919
0.0590242
0.0628285
0.0662522
0.0692484
0.0717773
0.0738073
0.0753165
0.0762936
0.0767391
0.0766665
0.0761032
0.0750906
0.073685
0.0719571
0.0699899
0.067878
0.0657317
0.0636643
0.0616726
0.0597297
0.0115742
0.00877194
0.00626967
0.00394599
0.00168563
-0.000430033
-0.00231936
-0.00391927
-0.00517452
-0.00603836
-0.00647417
-0.0064557
-0.0059667
-0.00500044
-0.00355907
-0.00165296
0.000699928
0.00347475
0.00664033
0.0101598
0.0139912
0.0180879
0.0223994
0.0268717
0.0314481
0.0360696
0.040676
0.0452062
0.0495995
0.0537962
0.0577387
0.0613726
0.0646476
0.0675187
0.0699474
0.071903
0.0733633
0.0743159
0.0747594
0.0747034
0.0741699
0.073193
0.0718189
0.0701052
0.0681186
0.0659329
0.0636389
0.0613252
0.0588979
0.0562508
0.0150204
0.01148
0.00849141
0.00586168
0.00339042
0.00113914
-0.000827257
-0.00246421
-0.00373218
-0.00459693
-0.00503178
-0.00501813
-0.00454538
-0.00361073
-0.0022188
-0.000381218
0.00188381
0.004552
0.00759345
0.0109731
0.0146511
0.0185835
0.0227224
0.0270167
0.0314128
0.0358545
0.0402845
0.0446446
0.0488766
0.0529234
0.0567293
0.0602417
0.0634117
0.0661953
0.0685543
0.0704576
0.071882
0.0728134
0.073247
0.0731886
0.0726542
0.0716707
0.0702749
0.0685127
0.0664365
0.0641034
0.061589
0.0589648
0.0560559
0.0526883
0.018317
0.0140473
0.0105527
0.00757872
0.00484976
0.002413
0.000320706
-0.001398
-0.00271715
-0.00361372
-0.00407028
-0.0040756
-0.00362478
-0.0027192
-0.00136637
0.000420312
0.00262184
0.00521394
0.00816733
0.0114481
0.0150181
0.0188351
0.0228534
0.0270242
0.031296
0.0356151
0.0399262
0.0441732
0.0482998
0.0522504
0.0559706
0.0594086
0.0625162
0.0652492
0.067569
0.0694433
0.0708472
0.0717637
0.0721848
0.0721113
0.0715538
0.070532
0.069074
0.0672159
0.0649977
0.0624631
0.0596775
0.0567002
0.053286
0.0492025
0.0213299
0.0163491
0.0123424
0.00900169
0.00598452
0.00332804
0.00107524
-0.000757493
-0.00215577
-0.00310646
-0.00360052
-0.00363368
-0.00320657
-0.00232484
-0.000999108
0.000755117
0.00291761
0.00546361
0.008364
0.0115855
0.015091
0.0188396
0.0227872
0.0268865
0.0310878
0.0353389
0.0395862
0.0437749
0.0478499
0.0517561
0.0554401
0.05885
0.0619372
0.0646568
0.066969
0.0688395
0.0702408
0.0711529
0.0715636
0.0714692
0.0708744
0.0697921
0.068243
0.0662543
0.0638562
0.0610819
0.0579898
0.0546323
0.0507015
0.045915
0.0239523
0.0182805
0.0137629
0.0100431
0.00671868
0.00381986
0.001383
-0.000585949
-0.00208244
-0.00310197
-0.00364306
-0.00370784
-0.00330227
-0.00243621
-0.00112349
0.000618042
0.00276665
0.0052967
0.00817882
0.0113799
0.0148635
0.0185894
0.0225147
0.0265931
0.030776
0.0350124
0.0392496
0.0434335
0.0475094
0.0514226
0.0551193
0.0585473
0.0616567
0.0644012
0.066739
0.0686334
0.0700536
0.070976
0.071384
0.071269
0.07063
0.0694738
0.0678142
0.065671
0.0630664
0.0600256
0.056603
0.0528475
0.0483954
0.0429194
0.026096
0.0197514
0.0147271
0.0106226
0.00697972
0.00382454
0.00118872
-0.000930378
-0.00253662
-0.00363305
-0.00422493
-0.00432034
-0.00393022
-0.00306856
-0.00175244
-2.1599e-06
0.00215877
0.00470361
0.00760235
0.0108218
0.0143254
0.0180738
0.0220243
0.0261314
0.0303472
0.0346211
0.038901
0.0431329
0.047262
0.0512333
0.054992
0.0584848
0.0616602
0.0644697
0.0668689
0.0688178
0.0702821
0.071234
0.0716522
0.0715232
0.0708403
0.0696044
0.0678233
0.0655105
0.0626818
0.0593562
0.0555869
0.0514215
0.0464453
0.04029
0.0276852
0.0206821
0.015156
0.0106647
0.00669783
0.00327865
0.000435748
-0.00184073
-0.00356188
-0.00473739
-0.00537863
-0.00549913
-0.00511457
-0.0042429
-0.00290447
-0.0011221
0.00107876
0.00367001
0.00662077
0.00989734
0.0134631
0.0172786
0.0213015
0.0254864
0.0297858
0.0341492
0.0385242
0.0428568
0.0470915
0.0511724
0.0550433
0.0586491
0.061936
0.064853
0.067352
0.0693897
0.0709275
0.0719329
0.0723799
0.0722494
0.0715294
0.0702152
0.068309
0.0658189
0.0627555
0.0591334
0.0550059
0.0504221
0.0449184
0.0380883
0.0286513
0.0209995
0.0149759
0.0100979
0.00580492
0.00211874
-0.000934112
-0.00336971
-0.0052055
-0.00645714
-0.00714156
-0.00727739
-0.00688479
-0.00598556
-0.00460327
-0.00276339
-0.000493371
0.00217713
0.00521616
0.00858927
0.0122594
0.0161869
0.0203292
0.0246411
0.0290746
0.0335793
0.0381022
0.0425886
0.046982
0.051225
0.0552596
0.0590284
0.0624748
0.0655444
0.0681854
0.0703501
0.0719953
0.0730834
0.073583
0.0734697
0.0727258
0.0713412
0.0693127
0.0666439
0.0633411
0.0594155
0.0549219
0.0499121
0.0438758
0.0363687
0.0289298
0.0206346
0.0141161
0.00885219
0.00423346
0.000280746
-0.00298079
-0.00557271
-0.00751824
-0.00883848
-0.00955558
-0.00969296
-0.00927511
-0.00832761
-0.00687725
-0.00495214
-0.0025819
0.000202153
0.00336679
0.00687665
0.0106941
0.0147788
0.019088
0.0235761
0.0281948
0.0328929
0.037617
0.042311
0.0469173
0.0513764
0.0556282
0.0596124
0.063269
0.0665398
0.0693686
0.071703
0.0734944
0.0746998
0.0752819
0.0752104
0.074462
0.0730209
0.0708792
0.0680359
0.0644937
0.0602611
0.0553957
0.0499527
0.0433755
0.0351821
0.0284577
0.0195193
0.0125066
0.00685804
0.00191544
-0.00230078
-0.00576636
-0.00850797
-0.0105542
-0.0119314
-0.0126666
-0.0127879
-0.0123241
-0.0113045
-0.00975898
-0.00771853
-0.00521497
-0.0022814
0.00104754
0.00473544
0.00874377
0.0130317
0.0175558
0.02227
0.0271254
0.03207
0.0370493
0.0420061
0.0468809
0.051612
0.0561368
0.0603914
0.0643123
0.0678368
0.0709038
0.0734553
0.0754372
0.0768
0.0775004
0.0775016
0.0767744
0.0752971
0.0730568
0.0700483
0.0662708
0.0617309
0.0564892
0.0506054
0.0434755
0.0345797
0.0271708
0.0175853
0.0100771
0.00404478
-0.00121876
-0.0056934
-0.00935556
-0.0122368
-0.0143711
-0.0157896
-0.0165245
-0.0166084
-0.0160743
-0.0149553
-0.0132848
-0.0110963
-0.00842411
-0.0053032
-0.00176969
0.00213879
0.00638281
0.0109208
0.0157086
0.0206996
0.025844
0.031089
0.0363789
0.041655
0.0468556
0.051917
0.056773
0.0613565
0.0655995
0.0694343
0.0727946
0.0756162
0.0778385
0.0794053
0.0802662
0.0803777
0.0797037
0.0782167
0.0758981
0.0727386
0.068734
0.0638888
0.0582674
0.0519343
0.0442367
0.0346151
0.0250028
0.0147621
0.00675487
0.000339376
-0.00524143
-0.00996763
-0.0138163
-0.0168241
-0.01903
-0.0204705
-0.0211827
-0.021204
-0.0205717
-0.0193228
-0.0174942
-0.0151223
-0.0122437
-0.00889555
-0.00511549
-0.000942394
0.00358331
0.00841921
0.0135206
0.0188399
0.0243266
0.0299271
0.0355843
0.0412377
0.0468238
0.0522758
0.0575245
0.0624987
0.0671257
0.0713325
0.0750465
0.0781969
0.0807159
0.0825398
0.0836104
0.0838766
0.0832949
0.081831
0.0794606
0.0761694
0.0719497
0.0668039
0.0608004
0.0540084
0.0457243
0.0353473
0.0218833
0.0109755
0.00246384
-0.00433475
-0.0102285
-0.0151977
-0.0192204
-0.0223383
-0.0245959
-0.0260352
-0.0266983
-0.0266278
-0.0258655
-0.0244526
-0.0224295
-0.0198357
-0.0167104
-0.0130929
-0.00902231
-0.00453894
0.0003158
0.00549873
0.0109644
0.0166647
0.0225482
0.0285604
0.034643
0.0407337
0.0467668
0.0526727
0.0583788
0.0638093
0.0688867
0.073532
0.0776659
0.0812103
0.0840892
0.0862306
0.0875677
0.0880407
0.0875978
0.0861971
0.0838075
0.0804094
0.0759908
0.0705518
0.0641646
0.0569035
0.048011
0.0368425
0.0177372
0.00614657
-0.00287689
-0.0100589
-0.0162605
-0.0214626
-0.0256441
-0.0288524
-0.0311379
-0.0325485
-0.0331319
-0.0329361
-0.0320078
-0.0303927
-0.028135
-0.0252777
-0.0218625
-0.0179308
-0.0135237
-0.00868266
-0.00345002
0.00213029
0.00801224
0.0141471
0.020483
0.0269644
0.0335318
0.0401216
0.0466655
0.0530913
0.0593226
0.0652793
0.0708782
0.0760341
0.0806603
0.0846706
0.0879803
0.0905077
0.0921763
0.0929166
0.0926673
0.0913775
0.0890086
0.0855345
0.080938
0.0752163
0.0684453
0.0607044
0.0511781
0.0391757
0.0124832
0.000190464
-0.00935417
-0.0169203
-0.0234238
-0.0288465
-0.0331688
-0.036444
-0.0387294
-0.0400792
-0.0405473
-0.0401878
-0.0390529
-0.037193
-0.0346567
-0.0314903
-0.0277387
-0.0234455
-0.0186535
-0.0134054
-0.00774445
-0.00171512
0.00463615
0.0112603
0.0181051
0.0251143
0.0322275
0.0393796
0.0465005
0.0535149
0.0603428
0.0668994
0.073096
0.0788403
0.084038
0.0885938
0.092413
0.0954036
0.0974781
0.0985555
0.0985638
0.0974417
0.0951413
0.0916289
0.0868811
0.0808912
0.073738
0.0655062
0.0553181
0.0424335
0.00603309
-0.00698499
-0.0170621
-0.0250132
-0.0318115
-0.0374403
-0.0418817
-0.0451962
-0.0474484
-0.0486997
-0.0490115
-0.0484444
-0.0470567
-0.0449044
-0.0420406
-0.0385157
-0.0343777
-0.0296724
-0.0244446
-0.018738
-0.0125967
-0.00606542
0.000809262
0.00797829
0.0153893
0.0229859
0.030707
0.0384864
0.0462521
0.0539265
0.0614257
0.0686604
0.0755358
0.0819526
0.0878078
0.0929965
0.0974132
0.100954
0.103519
0.105014
0.105354
0.104466
0.102292
0.0987871
0.0939211
0.0876818
0.0801509
0.0714173
0.0605365
0.0467155
-0.00170955
-0.0154805
-0.0261034
-0.0344404
-0.0415251
-0.0473423
-0.051877
-0.0551976
-0.0573775
-0.0584866
-0.0585943
-0.0577689
-0.0560761
-0.0535778
-0.0503325
-0.0463948
-0.0418162
-0.036645
-0.0309276
-0.024709
-0.0180335
-0.0109461
-0.00349306
0.00427706
0.0123123
0.0205564
0.0289483
0.0374211
0.0459015
0.0543094
0.0625579
0.0705527
0.0781933
0.0853727
0.0919791
0.0978969
0.103009
0.107197
0.110348
0.112352
0.113111
0.112536
0.110556
0.107114
0.102171
0.0957074
0.0878064
0.0785612
0.0669545
0.0521366
-0.0108505
-0.0254067
-0.036591
-0.0453149
-0.0526752
-0.0586595
-0.0632564
-0.0665437
-0.0686049
-0.0695198
-0.0693677
-0.0682259
-0.0661681
-0.0632634
-0.0595761
-0.0551659
-0.0500878
-0.0443929
-0.0381293
-0.0313427
-0.0240777
-0.0163789
-0.00829172
0.000136134
0.00885378
0.0178059
0.026932
0.036165
0.0454309
0.054648
0.0637263
0.0725673
0.0810644
0.089103
0.0965618
0.103314
0.109228
0.114173
0.118019
0.120639
0.121916
0.121746
0.12004
0.116729
0.11176
0.105103
0.0968446
0.0870793
0.0747111
0.0588297
-0.0215066
-0.0368863
-0.0486503
-0.0577613
-0.0653839
-0.0715091
-0.0761303
-0.0793366
-0.0812237
-0.0818833
-0.081406
-0.0798799
-0.0773883
-0.0740085
-0.0698117
-0.0648629
-0.0592212
-0.0529405
-0.0460705
-0.0386575
-0.030746
-0.0223795
-0.0136022
-0.00445993
0.0049981
0.0147183
0.0246416
0.0347018
0.0448249
0.0549281
0.0649191
0.0746956
0.0841453
0.0931458
0.101566
0.109267
0.116104
0.121927
0.12659
0.129946
0.131858
0.1322
0.130865
0.127765
0.122831
0.116024
0.107425
0.0971339
0.0839668
0.0669482
-0.0338074
-0.0500561
-0.0624212
-0.0719191
-0.0797869
-0.0860203
-0.0906193
-0.0936867
-0.0953329
-0.0956639
-0.0947842
-0.0927946
-0.0897897
-0.0858564
-0.0810739
-0.0755131
-0.0692376
-0.0623042
-0.054764
-0.0466637
-0.038047
-0.0289559
-0.0194323
-0.00951953
0.00073598
0.0112834
0.022066
0.0330196
0.0440711
0.0551379
0.0661261
0.0769302
0.0874327
0.0975039
0.107003
0.115777
0.123666
0.130505
0.136123
0.140352
0.143032
0.144013
0.143162
0.140371
0.13555
0.128644
0.119732
0.108912
0.0949065
0.0766698
-0.0478978
-0.0650701
-0.0780613
-0.0879446
-0.0960355
-0.102336
-0.106855
-0.109713
-0.111037
-0.110951
-0.109578
-0.107031
-0.103421
-0.098844
-0.0933893
-0.0871346
-0.0801482
-0.0724897
-0.0642117
-0.0553607
-0.0459787
-0.0361056
-0.0257801
-0.0150418
-0.00393338
0.00749844
0.0192006
0.031112
0.0431621
0.0552693
0.0673396
0.0792653
0.0909245
0.102181
0.112882
0.122865
0.131951
0.139954
0.146683
0.151944
0.155547
0.157313
0.157082
0.154717
0.150104
0.143166
0.133975
0.122629
0.107744
0.0881999
-0.0639411
-0.0821034
-0.0957503
-0.106016
-0.114301
-0.120616
-0.124984
-0.127543
-0.128446
-0.127838
-0.12586
-0.122647
-0.118323
-0.112999
-0.106774
-0.0997335
-0.0919512
-0.0834895
-0.0744019
-0.0647339
-0.0545255
-0.0438131
-0.0326312
-0.0210144
-0.0090001
0.00337036
0.0160491
0.0289799
0.0420961
0.0553189
0.0685555
0.0816975
0.0946197
0.107179
0.119216
0.130551
0.14099
0.150326
0.158341
0.164812
0.169516
0.172241
0.172791
0.170994
0.166704
0.159819
0.150398
0.138534
0.122729
0.101777
-0.0821239
-0.101357
-0.115695
-0.126335
-0.134776
-0.14104
-0.145164
-0.147317
-0.147677
-0.146416
-0.143701
-0.139691
-0.134526
-0.128336
-0.121229
-0.1133
-0.104628
-0.0952788
-0.0853053
-0.0747519
-0.0636553
-0.0520471
-0.0399561
-0.0274107
-0.0144412
-0.00108204
0.012626
0.0266333
0.040879
0.0552891
0.0697739
0.084226
0.0985187
0.112504
0.126014
0.138856
0.150819
0.161672
0.171168
0.179053
0.185066
0.188952
0.190474
0.189416
0.185594
0.178869
0.169283
0.156919
0.140149
0.117678
-0.102661
-0.123065
-0.138135
-0.14914
-0.157685
-0.16381
-0.167575
-0.169183
-0.168849
-0.166777
-0.163167
-0.158203
-0.15205
-0.144854
-0.136737
-0.127805
-0.11814
-0.107812
-0.0968722
-0.0853629
-0.073316
-0.0607569
-0.0477072
-0.0341872
-0.0202184
-0.00582603
0.00895795
0.0240927
0.0395256
0.0551896
0.0710003
0.0868538
0.102624
0.11816
0.133286
0.147799
0.161469
0.174041
0.185239
0.194769
0.202329
0.207615
0.210337
0.210229
0.207052
0.200623
0.190958
0.178123
0.160343
0.136227
-0.125805
-0.147504
-0.163355
-0.174705
-0.183284
-0.189157
-0.192415
-0.193305
-0.192087
-0.18901
-0.184312
-0.178208
-0.170892
-0.16253
-0.153259
-0.143194
-0.132424
-0.121018
-0.109028
-0.0964909
-0.0834325
-0.0698703
-0.0558166
-0.0412814
-0.0262755
-0.0108129
0.00508585
0.0213911
0.0380609
0.0550378
0.0722458
0.089587
0.106939
0.12415
0.14104
0.157396
0.17297
0.187483
0.200627
0.212067
0.221449
0.228415
0.232611
0.233706
0.231395
0.225435
0.215805
0.202544
0.18371
0.157803
-0.151853
-0.175003
-0.191693
-0.203358
-0.211876
-0.217345
-0.219903
-0.219855
-0.217519
-0.213198
-0.207177
-0.199712
-0.191029
-0.181314
-0.170725
-0.159383
-0.147384
-0.134796
-0.121669
-0.108032
-0.0939034
-0.07929
-0.0641927
-0.0486093
-0.032537
-0.0159763
0.00106615
0.0185747
0.0365209
0.05486
0.0735276
0.0924355
0.111468
0.130477
0.149281
0.167657
0.185345
0.202041
0.217403
0.23105
0.242575
0.251551
0.257549
0.260157
0.258988
0.253719
0.244275
0.230655
0.210723
0.182857
-0.181168
-0.205965
-0.223559
-0.235491
-0.243815
-0.248681
-0.250288
-0.249019
-0.245269
-0.239409
-0.231783
-0.222693
-0.212402
-0.201123
-0.189029
-0.176253
-0.162892
-0.149013
-0.134659
-0.119852
-0.104598
-0.0888919
-0.0727196
-0.0560639
-0.0389065
-0.0212314
-0.00302844
0.0157035
0.0349528
0.0546909
0.0748687
0.0954117
0.116215
0.137139
0.158004
0.178585
0.198608
0.217748
0.235628
0.251821
0.265856
0.277232
0.285428
0.289931
0.29025
0.285957
0.276901
0.26302
0.241947
0.211923
-0.214193
-0.240883
-0.259457
-0.271579
-0.279523
-0.283516
-0.283843
-0.280993
-0.275457
-0.267695
-0.25812
-0.247093
-0.234915
-0.22183
-0.208025
-0.193642
-0.178778
-0.163495
-0.147827
-0.131784
-0.115356
-0.0985233
-0.0812548
-0.063515
-0.0452667
-0.0264747
-0.00710914
0.0128511
0.0334145
0.0545728
0.0762964
0.098529
0.121182
0.144129
0.167199
0.190168
0.212756
0.23462
0.25535
0.27447
0.291443
0.305677
0.316548
0.323419
0.325663
0.322716
0.314317
0.300317
0.278065
0.245645
-0.251483
-0.280379
-0.300014
-0.312203
-0.319506
-0.32226
-0.320874
-0.315976
-0.308188
-0.298076
-0.286141
-0.272808
-0.258422
-0.243257
-0.227514
-0.211339
-0.194826
-0.178027
-0.160961
-0.143622
-0.125983
-0.108003
-0.0896306
-0.0708092
-0.0514799
-0.0315853
-0.0110725
0.0101028
0.0319729
0.0545537
0.0778397
0.101798
0.126364
0.151429
0.176838
0.202378
0.227767
0.252651
0.276593
0.299069
0.31947
0.337107
0.351231
0.361055
0.36578
0.364662
0.357286
0.343369
0.319913
0.284807
-0.293743
-0.325245
-0.346022
-0.358086
-0.364373
-0.365385
-0.361711
-0.354166
-0.343538
-0.330528
-0.31574
-0.299669
-0.282711
-0.265163
-0.247238
-0.22908
-0.21077
-0.192347
-0.17381
-0.155129
-0.136255
-0.117122
-0.0976552
-0.077773
-0.0573915
-0.0364279
-0.0148037
0.00755231
0.0306999
0.0546833
0.0795261
0.105225
0.131744
0.159003
0.186872
0.215155
0.243583
0.271798
0.299344
0.325654
0.350048
0.371731
0.38981
0.403316
0.411235
0.412583
0.40673
0.393194
0.368527
0.330379
-0.341892
-0.37651
-0.398494
-0.410128
-0.414857
-0.413438
-0.40671
-0.395743
-0.381538
-0.364962
-0.346735
-0.327432
-0.307492
-0.287234
-0.266871
-0.246536
-0.226291
-0.206149
-0.186082
-0.166031
-0.145918
-0.125648
-0.105117
-0.0842165
-0.0628338
-0.0408578
-0.0181811
0.0052971
0.0296678
0.0550078
0.0813749
0.108802
0.137289
0.166793
0.197219
0.228404
0.260101
0.291966
0.323535
0.354208
0.38324
0.409726
0.432612
0.450715
0.462747
0.467412
0.463773
0.451054
0.425212
0.383576
-0.397145
-0.43553
-0.458745
-0.469461
-0.471846
-0.467036
-0.456232
-0.440844
-0.422144
-0.401193
-0.378842
-0.355746
-0.332379
-0.309066
-0.286009
-0.263314
-0.241012
-0.219078
-0.197447
-0.176024
-0.154694
-0.133329
-0.111791
-0.0899407
-0.0676334
-0.0447274
-0.0210838
0.00343088
0.028942
0.055563
0.0833909
0.112501
0.142937
0.174705
0.207757
0.241976
0.277158
0.312988
0.349017
0.384632
0.419033
0.451211
0.47994
0.503787
0.521125
0.530251
0.529798
0.518548
0.491638
0.445955
-0.461151
-0.504135
-0.528505
-0.537522
-0.536404
-0.526865
-0.510619
-0.489525
-0.465191
-0.438901
-0.411642
-0.384133
-0.356867
-0.330155
-0.304162
-0.27895
-0.2545
-0.230736
-0.207543
-0.184781
-0.162291
-0.139905
-0.117448
-0.094746
-0.0716203
-0.0478959
-0.0234004
0.00203488
0.0285721
0.0563649
0.0855544
0.116264
0.148592
0.1826
0.218305
0.255653
0.294504
0.3346
0.375534
0.416708
0.457297
0.496202
0.532025
0.563054
0.587258
0.602397
0.606512
0.597722
0.569994
0.519556
-0.536203
-0.584837
-0.610074
-0.61613
-0.609789
-0.593648
-0.570137
-0.541698
-0.510338
-0.477581
-0.444535
-0.411955
-0.380318
-0.349883
-0.320752
-0.292913
-0.266274
-0.24069
-0.215986
-0.191962
-0.16841
-0.145116
-0.121866
-0.0984445
-0.0746393
-0.0502402
-0.0250397
0.00116715
0.0285816
0.0573999
0.0878114
0.119993
0.154106
0.190281
0.228611
0.26913
0.311785
0.356411
0.402679
0.450052
0.497722
0.544541
0.588961
0.628975
0.662081
0.685361
0.696034
0.691233
0.663204
0.607127
-0.625588
-0.681162
-0.706548
-0.707581
-0.693454
-0.668083
-0.634886
-0.597033
-0.556976
-0.516468
-0.476689
-0.438377
-0.401931
-0.367512
-0.33511
-0.304605
-0.275808
-0.248484
-0.222379
-0.197227
-0.172763
-0.148721
-0.124842
-0.100873
-0.0765629
-0.0516673
-0.0259432
0.000851038
0.0289563
0.0586135
0.0900622
0.123539
0.159273
0.197476
0.238336
0.281991
0.328513
0.377863
0.429847
0.484048
0.539744
0.595808
0.650598
0.70184
0.746507
0.780853
0.800988
0.802579
0.775275
0.712493
-0.73419
-0.79817
-0.822118
-0.814743
-0.788983
-0.75071
-0.704644
-0.654811
-0.604112
-0.55445
-0.506984
-0.462333
-0.420735
-0.382175
-0.34648
-0.313379
-0.282551
-0.253652
-0.226336
-0.200258
-0.175089
-0.150509
-0.126213
-0.101907
-0.0773053
-0.0521274
-0.0260968
0.00106377
0.0296344
0.0599
0.0921522
0.126689
0.163814
0.203831
0.247034
0.293695
0.344037
0.398199
0.456182
0.517772
0.582436
0.649182
0.716389
0.781602
0.841284
0.890723
0.924586
0.936408
0.911841
0.8412
-0.869579
-0.943282
-0.962465
-0.941085
-0.897928
-0.84166
-0.778615
-0.713722
-0.650211
-0.589966
-0.533946
-0.482498
-0.435573
-0.39289
-0.354039
-0.318553
-0.285948
-0.255748
-0.227499
-0.200773
-0.175172
-0.15032
-0.125866
-0.101478
-0.0768354
-0.0516261
-0.0255421
0.00172673
0.0304967
0.061095
0.0938639
0.129164
0.167375
0.208899
0.254152
0.303556
0.357524
0.416421
0.480518
0.549909
0.624386
0.703268
0.785155
0.867611
0.946723
1.01678
1.07066
1.09892
1.08102
1.00166
-1.04408
-1.1276
-1.13522
-1.09058
-1.02144
-0.940232
-0.855058
-0.771569
-0.693004
-0.620889
-0.555695
-0.497271
-0.44512
-0.398578
-0.356927
-0.319451
-0.285474
-0.25437
-0.225569
-0.198557
-0.172863
-0.148062
-0.123758
-0.0995833
-0.0751881
-0.050233
-0.0243832
0.00269949
0.0313631
0.0619725
0.0949164
0.130615
0.169524
0.212144
0.259021
0.310746
0.367947
0.431269
0.501333
0.578661
0.663549
0.755872
0.854771
0.958203
1.06224
1.16037
1.24355
1.29831
1.29476
1.20736
-1.27895
-1.368
-1.35029
-1.26714
-1.15945
-1.04412
-0.930693
-0.824883
-0.729259
-0.644414
-0.569906
-0.504786
-0.447911
-0.398114
-0.354291
-0.315439
-0.280668
-0.249193
-0.22033
-0.193476
-0.1681
-0.143726
-0.119924
-0.0962964
-0.0724709
-0.0480869
-0.0227902
0.00377894
0.0319931
0.0622476
0.0949702
0.130633
0.169761
0.212951
0.260876
0.314302
0.374095
0.441218
0.516718
0.601672
0.697093
0.803726
0.921722
1.05005
1.18553
1.32154
1.44747
1.5451
1.57103
1.48127
-1.61291
-1.69018
-1.61933
-1.4729
-1.30891
-1.14803
-0.99975
-0.868348
-0.754482
-0.65694
-0.573789
-0.502937
-0.442391
-0.39037
-0.345332
-0.305967
-0.271167
-0.239998
-0.211667
-0.185499
-0.160911
-0.13739
-0.114481
-0.0917677
-0.0688625
-0.0453933
-0.0209952
0.004704
0.032092
0.0615842
0.0936365
0.12876
0.167538
0.210647
0.258876
0.313159
0.374597
0.444492
0.524366
0.61597
0.721234
0.842152
0.980482
1.13715
1.31103
1.49708
1.68468
1.85151
1.93684
1.86472
-2.11671
-2.13163
-1.95349
-1.7052
-1.46123
-1.24197
-1.05308
-0.894449
-0.762878
-0.654174
-0.564261
-0.489559
-0.427074
-0.374352
-0.329412
-0.29065
-0.256768
-0.226709
-0.1996
-0.174714
-0.151433
-0.129229
-0.107632
-0.086221
-0.0646059
-0.0424132
-0.0192775
0.00517474
0.0313345
0.0596245
0.0905134
0.124535
0.162308
0.204566
0.252188
0.306243
0.368042
0.439204
0.521733
0.6181
0.731322
0.864984
1.02314
1.20989
1.42826
1.67794
1.95232
2.22902
2.4309
2.43194
-2.91883
-2.74199
-2.35914
-1.95416
-1.60135
-1.31131
-1.07886
-0.894528
-0.748473
-0.63218
-0.538838
-0.463171
-0.401147
-0.349691
-0.306444
-0.269582
-0.237679
-0.209603
-0.184442
-0.16145
-0.140005
-0.119578
-0.0997067
-0.0799784
-0.0600127
-0.0394471
-0.0179277
0.00490856
0.029443
0.0560902
0.0853144
0.117649
0.153724
0.194294
0.240284
0.292847
0.353439
0.423923
0.506711
0.604952
0.722774
0.865576
1.04032
1.25569
1.52173
1.84814
2.23976
2.6837
3.10337
3.31484
-4.30829
-3.58025
-2.81236
-2.18395
-1.69676
-1.33087
-1.05968
-0.857425
-0.704482
-0.587035
-0.4954
-0.422753
-0.364253
-0.316412
-0.276675
-0.243131
-0.214325
-0.189128
-0.166645
-0.146152
-0.127053
-0.108845
-0.0910903
-0.073402
-0.055423
-0.0368141
-0.0172443
0.00362586
0.0261544
0.0507318
0.0777979
0.107862
0.141529
0.179534
0.222792
0.27246
0.330031
0.397474
0.477426
0.573486
0.690659
0.835998
1.01953
1.25553
1.5643
1.97281
2.50868
3.1901
4.01477
4.80843
-7.0462
-4.67305
-3.13913
-2.23595
-1.63553
-1.22712
-0.948421
-0.752891
-0.61107
-0.50527
-0.424418
-0.361293
-0.311048
-0.270335
-0.236769
-0.208601
-0.18452
-0.163514
-0.144789
-0.127704
-0.111732
-0.0964302
-0.0814127
-0.0663378
-0.0508914
-0.0347741
-0.0176944
0.000647293
0.0205665
0.0424079
0.0665599
0.093473
0.123684
0.157846
0.196776
0.241517
0.293427
0.35432
0.426677
0.513987
0.621293
0.756118
0.930002
1.16132
1.48062
1.93679
2.59636
3.5721
5.1944
7.6784
-11.6814
-5.75834
-2.98805
-1.87144
-1.28235
-0.928276
-0.706881
-0.559709
-0.45564
-0.37876
-0.320187
-0.274484
-0.238112
-0.208652
-0.184379
-0.164018
-0.146598
-0.131366
-0.117719
-0.105167
-0.093302
-0.0817776
-0.0702905
-0.0585688
-0.0463617
-0.0334295
-0.0195381
-0.00444732
0.0120951
0.0303636
0.0506653
0.0733542
0.098848
0.127652
0.160392
0.197857
0.24107
0.291384
0.350639
0.421421
0.507504
0.614667
0.752281
0.936875
1.20041
1.60434
2.26055
3.4718
6.358
12.4032
)
;

boundaryField
{
    movingWall
    {
        type            zeroGradient;
    }
    fixedWalls
    {
        type            zeroGradient;
    }
    frontAndBack
    {
        type            empty;
    }
}


// ************************************************************************* //
