/*--------------------------------*- C++ -*----------------------------------*\
| =========                 |                                                 |
| \\      /  F ield         | OpenFOAM: The Open Source CFD Toolbox           |
|  \\    /   O peration     | Version:  v2012                                 |
|   \\  /    A nd           | Website:  www.openfoam.com                      |
|    \\/     M anipulation  |                                                 |
\*---------------------------------------------------------------------------*/
FoamFile
{
    version     2.0;
    format      ascii;
    class       surfaceScalarField;
    location    "0.3";
    object      phi;
}
// * * * * * * * * * * * * * * * * * * * * * * * * * * * * * * * * * * * * * //

dimensions      [0 3 -1 0 0 0 0];
oriented        oriented;


internalField   nonuniform List<scalar> 
4900
(
1.17878e-09
-1.1869e-09
2.41846e-09
-1.23969e-09
2.51831e-09
-9.9865e-11
1.0401e-09
1.47821e-09
-2.09662e-09
3.13672e-09
-6.80388e-09
4.70726e-09
-1.29114e-08
6.10748e-09
-2.02113e-08
7.29994e-09
-2.84817e-08
8.27044e-09
-3.74987e-08
9.01696e-09
-4.70428e-08
9.54419e-09
-5.69035e-08
9.86071e-09
-6.68809e-08
9.97738e-09
-7.67873e-08
9.90647e-09
-8.64484e-08
9.66107e-09
-9.57031e-08
9.25471e-09
-1.04404e-07
8.70124e-09
-1.12419e-07
8.01464e-09
-1.19628e-07
7.20897e-09
-1.25926e-07
6.29843e-09
-1.31224e-07
5.29734e-09
-1.35444e-07
4.22018e-09
-1.38525e-07
3.0817e-09
-1.40422e-07
1.89698e-09
-1.41104e-07
6.81478e-10
-1.40555e-07
-5.48892e-10
-1.38777e-07
-1.77776e-09
-1.35789e-07
-2.98826e-09
-1.31626e-07
-4.16305e-09
-1.26342e-07
-5.28439e-09
-1.20007e-07
-6.33418e-09
-1.12713e-07
-7.29416e-09
-1.04567e-07
-8.14603e-09
-9.56956e-08
-8.87167e-09
-8.62422e-08
-9.4534e-09
-7.6368e-08
-9.87424e-09
-6.62498e-08
-1.01183e-08
-5.60789e-08
-1.01709e-08
-4.60596e-08
-1.00193e-08
-3.64065e-08
-9.65316e-09
-2.73418e-08
-9.06471e-09
-1.90916e-08
-8.2502e-09
-1.18805e-08
-7.2111e-09
-5.92378e-09
-5.95676e-09
-1.4142e-09
-4.50958e-09
1.5015e-09
-2.91571e-09
2.76689e-09
-1.26539e-09
2.49826e-09
2.68627e-10
1.17512e-09
1.32315e-09
1.17512e-09
1.25005e-09
-2.43696e-09
1.44879e-09
-1.43844e-09
-1.16038e-09
2.5093e-09
-7.38495e-09
7.70277e-09
-1.74752e-08
1.3227e-08
-3.1323e-08
1.8555e-08
-4.86027e-08
2.33872e-08
-6.88646e-08
2.75619e-08
-9.15927e-08
3.09985e-08
-1.16241e-07
3.36655e-08
-1.42258e-07
3.55611e-08
-1.691e-07
3.67027e-08
-1.96243e-07
3.71202e-08
-2.23187e-07
3.68513e-08
-2.49465e-07
3.59391e-08
-2.74641e-07
3.44303e-08
-2.98314e-07
3.23738e-08
-3.20119e-07
2.98201e-08
-3.39731e-07
2.68211e-08
-3.56862e-07
2.34293e-08
-3.71263e-07
1.96985e-08
-3.82726e-07
1.56834e-08
-3.91084e-07
1.14396e-08
-3.96211e-07
7.02426e-09
-3.98026e-07
2.49588e-09
-3.96489e-07
-2.08547e-09
-3.91609e-07
-6.65807e-09
-3.83439e-07
-1.11586e-08
-3.72079e-07
-1.55223e-08
-3.57681e-07
-1.9683e-08
-3.40441e-07
-2.35739e-08
-3.20608e-07
-2.71276e-08
-2.98476e-07
-3.02773e-08
-2.74391e-07
-3.29572e-08
-2.48741e-07
-3.51036e-08
-2.21959e-07
-3.66561e-08
-1.94518e-07
-3.75591e-08
-1.66926e-07
-3.77629e-08
-1.3972e-07
-3.72258e-08
-1.13457e-07
-3.59163e-08
-8.87056e-08
-3.38158e-08
-6.60327e-08
-3.09231e-08
-4.59838e-08
-2.726e-08
-2.90583e-08
-2.28823e-08
-1.56717e-08
-1.78962e-08
-6.09833e-09
-1.24891e-08
-3.81139e-10
-6.98258e-09
1.80595e-09
-1.91846e-09
1.33505e-09
1.79405e-09
2.51017e-09
1.54527e-10
-2.59149e-09
-2.40535e-09
1.12142e-09
-9.35398e-09
9.45791e-09
-2.15291e-08
1.98778e-08
-3.91968e-08
3.08947e-08
-6.22106e-08
4.15689e-08
-9.01412e-08
5.13178e-08
-1.22377e-07
5.97972e-08
-1.58194e-07
6.68164e-08
-1.96813e-07
7.22841e-08
-2.37427e-07
7.6175e-08
-2.79232e-07
7.85076e-08
-3.21442e-07
7.93308e-08
-3.63305e-07
7.87136e-08
-4.04105e-07
7.67395e-08
-4.43176e-07
7.35017e-08
-4.79903e-07
6.91003e-08
-5.13723e-07
6.36403e-08
-5.44132e-07
5.72304e-08
-5.70685e-07
4.99825e-08
-5.92998e-07
4.20109e-08
-6.10747e-07
3.34328e-08
-6.23675e-07
2.43678e-08
-6.3159e-07
1.49386e-08
-6.34365e-07
5.27089e-09
-6.31944e-07
-4.50628e-09
-6.24341e-07
-1.42607e-08
-6.11643e-07
-2.38569e-08
-5.94009e-07
-3.31567e-08
-5.71672e-07
-4.20197e-08
-5.44942e-07
-5.03042e-08
-5.14201e-07
-5.7868e-08
-4.79908e-07
-6.45708e-08
-4.4259e-07
-7.02749e-08
-4.02845e-07
-7.48484e-08
-3.61334e-07
-7.81671e-08
-3.18776e-07
-8.01178e-08
-2.75937e-07
-8.06016e-08
-2.33625e-07
-7.95383e-08
-1.9267e-07
-7.68712e-08
-1.53912e-07
-7.25739e-08
-1.18175e-07
-6.66595e-08
-8.62421e-08
-5.91932e-08
-5.88123e-08
-5.03121e-08
-3.64523e-08
-4.02562e-08
-1.95239e-08
-2.94175e-08
-8.08739e-09
-1.84191e-08
-1.78088e-09
-8.22497e-09
3.30206e-10
-3.17031e-10
2.84038e-09
-1.37791e-09
-1.2136e-09
-7.52667e-09
7.27017e-09
-1.97146e-08
2.16458e-08
-3.85829e-08
3.87461e-08
-6.4277e-08
5.65888e-08
-9.65486e-08
7.38405e-08
-1.34855e-07
8.96242e-08
-1.78447e-07
1.03389e-07
-2.2644e-07
1.14809e-07
-2.77868e-07
1.23712e-07
-3.31726e-07
1.30033e-07
-3.87003e-07
1.33784e-07
-4.42702e-07
1.3503e-07
-4.9786e-07
1.33872e-07
-5.51562e-07
1.30441e-07
-6.02946e-07
1.24886e-07
-6.51217e-07
1.17371e-07
-6.95645e-07
1.08068e-07
-7.35574e-07
9.71597e-08
-7.70425e-07
8.48336e-08
-7.99697e-07
7.12831e-08
-8.22971e-07
5.67066e-08
-8.39911e-07
4.13075e-08
-8.50266e-07
2.52944e-08
-8.53877e-07
8.88109e-09
-8.5067e-07
-7.7132e-09
-8.40666e-07
-2.4264e-08
-8.23981e-07
-4.05419e-08
-8.00825e-07
-5.63132e-08
-7.71504e-07
-7.1341e-08
-7.36421e-07
-8.5387e-08
-6.96076e-07
-9.82129e-08
-6.51063e-07
-1.09584e-07
-6.02066e-07
-1.19272e-07
-5.49858e-07
-1.27057e-07
-4.95288e-07
-1.32737e-07
-4.39279e-07
-1.36126e-07
-3.82813e-07
-1.37068e-07
-3.26915e-07
-1.35437e-07
-2.72636e-07
-1.3115e-07
-2.21031e-07
-1.24178e-07
-1.7313e-07
-1.14561e-07
-1.299e-07
-1.02423e-07
-9.22019e-08
-8.80104e-08
-6.0733e-08
-7.17251e-08
-3.5958e-08
-5.41924e-08
-1.80245e-08
-3.63526e-08
-6.66984e-09
-1.95797e-08
-1.12814e-09
-5.85873e-09
1.71225e-09
-3.02104e-09
1.80743e-09
-1.31138e-08
1.73629e-08
-3.09901e-08
3.95221e-08
-5.6959e-08
6.4715e-08
-9.09438e-08
9.05736e-08
-1.32532e-07
1.15428e-07
-1.81038e-07
1.3813e-07
-2.35574e-07
1.57925e-07
-2.95108e-07
1.74343e-07
-3.58518e-07
1.87122e-07
-4.24635e-07
1.9615e-07
-4.92276e-07
2.01425e-07
-5.60271e-07
2.03025e-07
-6.27486e-07
2.01087e-07
-6.92836e-07
1.95791e-07
-7.553e-07
1.8735e-07
-8.13929e-07
1.76e-07
-8.67855e-07
1.61993e-07
-9.16292e-07
1.45598e-07
-9.5855e-07
1.27091e-07
-9.94027e-07
1.06761e-07
-1.02222e-06
8.49029e-08
-1.04274e-06
6.1821e-08
-1.05527e-06
3.78269e-08
-1.05963e-06
1.32402e-08
-1.05573e-06
-1.16116e-08
-1.0436e-06
-3.63934e-08
-1.02338e-06
-6.07634e-08
-9.95319e-07
-8.43736e-08
-9.59788e-07
-1.06872e-07
-9.17269e-07
-1.27906e-07
-8.68359e-07
-1.47123e-07
-8.13767e-07
-1.64176e-07
-7.54308e-07
-1.7873e-07
-6.909e-07
-1.90466e-07
-6.24551e-07
-1.99085e-07
-5.56353e-07
-2.04324e-07
-4.87464e-07
-2.05957e-07
-4.19091e-07
-2.0381e-07
-3.52467e-07
-1.97774e-07
-2.88826e-07
-1.87819e-07
-2.29369e-07
-1.74018e-07
-1.75222e-07
-1.5657e-07
-1.27395e-07
-1.35838e-07
-8.67208e-08
-1.12399e-07
-5.38004e-08
-8.71129e-08
-2.89328e-08
-6.12202e-08
-1.20571e-08
-3.64553e-08
-2.70804e-09
-1.52078e-08
-9.95776e-10
-4.64128e-09
6.4487e-09
-1.87554e-08
3.1477e-08
-4.24746e-08
6.32413e-08
-7.57087e-08
9.7949e-08
-1.18094e-07
1.32959e-07
-1.69e-07
1.66335e-07
-2.27569e-07
1.96699e-07
-2.92757e-07
2.23113e-07
-3.63386e-07
2.44973e-07
-4.3819e-07
2.61926e-07
-5.15852e-07
2.73813e-07
-5.95044e-07
2.80617e-07
-6.74448e-07
2.82429e-07
-7.52785e-07
2.79424e-07
-8.2883e-07
2.71836e-07
-9.01426e-07
2.59947e-07
-9.69498e-07
2.44072e-07
-1.03206e-06
2.24554e-07
-1.08822e-06
2.01757e-07
-1.13719e-06
1.7606e-07
-1.17828e-06
1.47858e-07
-1.21094e-06
1.17557e-07
-1.23469e-06
8.55746e-08
-1.2492e-06
5.23412e-08
-1.25426e-06
1.82966e-08
-1.24976e-06
-1.61085e-08
-1.23574e-06
-5.04129e-08
-1.21236e-06
-8.41467e-08
-1.1799e-06
-1.16832e-07
-1.13879e-06
-1.47988e-07
-1.08956e-06
-1.77129e-07
-1.03291e-06
-2.03776e-07
-9.69632e-07
-2.27455e-07
-9.00653e-07
-2.4771e-07
-8.2701e-07
-2.64108e-07
-7.49847e-07
-2.76249e-07
-6.70396e-07
-2.83775e-07
-5.89964e-07
-2.86389e-07
-5.09913e-07
-2.83862e-07
-4.31632e-07
-2.76055e-07
-3.56511e-07
-2.6294e-07
-2.85904e-07
-2.44625e-07
-2.2109e-07
-2.21383e-07
-1.63228e-07
-1.937e-07
-1.13307e-07
-1.6232e-07
-7.20962e-08
-1.28324e-07
-4.00997e-08
-9.32166e-08
-1.75241e-08
-5.9031e-08
-4.27297e-09
-2.84589e-08
-5.26873e-09
-6.18683e-09
1.26355e-08
-2.42567e-08
4.95467e-08
-5.37983e-08
9.27829e-08
-9.43027e-08
1.38453e-07
-1.45083e-07
1.83739e-07
-2.05259e-07
2.2651e-07
-2.73766e-07
2.65206e-07
-3.49387e-07
2.98735e-07
-4.30792e-07
3.26377e-07
-5.16568e-07
3.47702e-07
-6.05262e-07
3.62508e-07
-6.95412e-07
3.70767e-07
-7.85572e-07
3.72589e-07
-8.74336e-07
3.68188e-07
-9.6036e-07
3.57859e-07
-1.04237e-06
3.41959e-07
-1.11919e-06
3.20889e-07
-1.18973e-06
2.95092e-07
-1.25301e-06
2.65034e-07
-1.30815e-06
2.31209e-07
-1.35442e-06
1.94127e-07
-1.39118e-06
1.54317e-07
-1.41793e-06
1.12322e-07
-1.43429e-06
6.87018e-08
-1.44002e-06
2.40287e-08
-1.43502e-06
-2.11105e-08
-1.41932e-06
-6.61163e-08
-1.39309e-06
-1.10378e-07
-1.35665e-06
-1.53275e-07
-1.31045e-06
-1.94183e-07
-1.25511e-06
-2.32474e-07
-1.19136e-06
-2.67525e-07
-1.12008e-06
-2.98727e-07
-1.0423e-06
-3.2549e-07
-9.59155e-07
-3.47256e-07
-8.71894e-07
-3.6351e-07
-7.81873e-07
-3.73796e-07
-6.90529e-07
-3.77733e-07
-5.99357e-07
-3.75033e-07
-5.09889e-07
-3.65523e-07
-4.23659e-07
-3.4917e-07
-3.4217e-07
-3.26114e-07
-2.66853e-07
-2.96701e-07
-1.99028e-07
-2.61525e-07
-1.3986e-07
-2.21488e-07
-9.03204e-08
-1.77863e-07
-5.11549e-08
-1.32382e-07
-2.28735e-08
-8.73124e-08
-5.76919e-09
-4.55632e-08
-1.10379e-08
-7.64565e-09
2.02811e-08
-2.95451e-08
7.14461e-08
-6.47987e-08
1.28036e-07
-1.12487e-07
1.86142e-07
-1.71588e-07
2.4284e-07
-2.40945e-07
2.95867e-07
-3.19269e-07
3.43529e-07
-4.05151e-07
3.84617e-07
-4.97095e-07
4.1832e-07
-5.93539e-07
4.44147e-07
-6.92897e-07
4.61865e-07
-7.93578e-07
4.71447e-07
-8.94017e-07
4.73028e-07
-9.92697e-07
4.66869e-07
-1.08817e-06
4.5333e-07
-1.17906e-06
4.32851e-07
-1.2641e-06
4.0593e-07
-1.34212e-06
3.73111e-07
-1.41206e-06
3.34977e-07
-1.47299e-06
2.9214e-07
-1.5241e-06
2.45237e-07
-1.56471e-06
1.94927e-07
-1.59428e-06
1.4189e-07
-1.6124e-06
8.68233e-08
-1.61882e-06
3.04417e-08
-1.61341e-06
-2.65219e-08
-1.5962e-06
-8.33196e-08
-1.56739e-06
-1.39189e-07
-1.52731e-06
-1.93358e-07
-1.47644e-06
-2.45046e-07
-1.41544e-06
-2.93473e-07
-1.34511e-06
-3.37863e-07
-1.26638e-06
-3.77458e-07
-1.18034e-06
-4.11523e-07
-1.08824e-06
-4.39365e-07
-9.91401e-07
-4.60345e-07
-8.913e-07
-4.73898e-07
-7.89483e-07
-4.7955e-07
-6.87572e-07
-4.76944e-07
-5.87228e-07
-4.65866e-07
-4.90127e-07
-4.46271e-07
-3.97921e-07
-4.1832e-07
-3.12203e-07
-3.82418e-07
-2.34469e-07
-3.39259e-07
-1.66081e-07
-2.89876e-07
-1.08235e-07
-2.3571e-07
-6.1943e-08
-1.78674e-07
-2.80346e-08
-1.21221e-07
-7.1843e-09
-6.64135e-08
-1.82222e-08
-9.02356e-09
2.93047e-08
-3.46119e-08
9.70345e-08
-7.54327e-08
1.68857e-07
-1.30177e-07
2.40887e-07
-1.97487e-07
3.10149e-07
-2.75919e-07
3.743e-07
-3.63942e-07
4.31553e-07
-4.59944e-07
4.80619e-07
-5.62249e-07
5.20624e-07
-6.69141e-07
5.5104e-07
-7.78896e-07
5.7162e-07
-8.89798e-07
5.8235e-07
-1.00017e-06
5.83401e-07
-1.10839e-06
5.75091e-07
-1.21292e-06
5.57858e-07
-1.3123e-06
5.32229e-07
-1.40517e-06
4.98804e-07
-1.4903e-06
4.58243e-07
-1.56657e-06
4.11247e-07
-1.63299e-06
3.58558e-07
-1.6887e-06
3.00946e-07
-1.73298e-06
2.39207e-07
-1.76525e-06
1.74164e-07
-1.78509e-06
1.06662e-07
-1.79222e-06
3.75639e-08
-1.78649e-06
-3.22426e-08
-1.76796e-06
-1.01853e-07
-1.7368e-06
-1.70347e-07
-1.69337e-06
-2.3679e-07
-1.63818e-06
-3.00239e-07
-1.5719e-06
-3.59749e-07
-1.49538e-06
-4.14385e-07
-1.40961e-06
-4.63227e-07
-1.31575e-06
-5.05387e-07
-1.21508e-06
-5.40027e-07
-1.10906e-06
-5.66371e-07
-9.99223e-07
-5.83733e-07
-8.87235e-07
-5.91538e-07
-7.74832e-07
-5.89347e-07
-6.63806e-07
-5.76892e-07
-5.55974e-07
-5.54104e-07
-4.53143e-07
-5.21151e-07
-3.57079e-07
-4.78483e-07
-2.69468e-07
-4.26869e-07
-1.91888e-07
-3.67457e-07
-1.25779e-07
-3.01818e-07
-7.24349e-08
-2.32018e-07
-3.30045e-08
-1.60651e-07
-8.52543e-09
-9.08926e-08
-2.67476e-08
-1.03335e-08
3.96382e-08
-3.94801e-08
1.26181e-07
-8.57221e-08
2.15099e-07
-1.47386e-07
3.02551e-07
-2.22783e-07
3.85546e-07
-3.10181e-07
4.61698e-07
-4.07798e-07
5.29169e-07
-5.13802e-07
5.86624e-07
-6.26332e-07
6.33154e-07
-7.4351e-07
6.68218e-07
-8.63468e-07
6.91578e-07
-9.84369e-07
7.0325e-07
-1.10442e-06
7.03455e-07
-1.22191e-06
6.92582e-07
-1.33521e-06
6.71153e-07
-1.44278e-06
6.39796e-07
-1.5432e-06
5.99223e-07
-1.63517e-06
5.50213e-07
-1.71752e-06
4.93597e-07
-1.78921e-06
4.30249e-07
-1.84934e-06
3.61081e-07
-1.89717e-06
2.87033e-07
-1.93208e-06
2.09076e-07
-1.95363e-06
1.28206e-07
-1.96151e-06
4.54439e-08
-1.95558e-06
-3.81659e-08
-1.93588e-06
-1.21556e-07
-1.90259e-06
-2.0364e-07
-1.85606e-06
-2.83315e-07
-1.79683e-06
-3.59469e-07
-1.72559e-06
-4.30986e-07
-1.64322e-06
-4.96759e-07
-1.55075e-06
-5.557e-07
-1.44938e-06
-6.06758e-07
-1.34047e-06
-6.48935e-07
-1.22553e-06
-6.81309e-07
-1.1062e-06
-7.03061e-07
-9.84242e-07
-7.13499e-07
-8.615e-07
-7.12089e-07
-7.39898e-07
-6.98494e-07
-6.214e-07
-6.72602e-07
-5.07976e-07
-6.34575e-07
-4.01577e-07
-5.84882e-07
-3.04094e-07
-5.24352e-07
-2.17336e-07
-4.54215e-07
-1.43002e-07
-3.76152e-07
-8.26728e-08
-2.92347e-07
-3.78155e-08
-2.05508e-07
-9.80803e-09
-1.189e-07
-3.65556e-08
-1.15906e-08
5.12287e-08
-4.41868e-08
1.58777e-07
-9.57228e-08
2.66635e-07
-1.64182e-07
3.7101e-07
-2.47555e-07
4.68919e-07
-3.4382e-07
5.57963e-07
-4.50937e-07
6.36286e-07
-5.6685e-07
7.02537e-07
-6.89501e-07
7.55805e-07
-8.16843e-07
7.9556e-07
-9.46863e-07
8.21598e-07
-1.07759e-06
8.33982e-07
-1.20714e-06
8.33004e-07
-1.3337e-06
8.19136e-07
-1.45554e-06
7.92999e-07
-1.57108e-06
7.55332e-07
-1.67883e-06
7.06969e-07
-1.77743e-06
6.48815e-07
-1.86567e-06
5.8184e-07
-1.94248e-06
5.07057e-07
-2.00692e-06
4.25522e-07
-2.05821e-06
3.38327e-07
-2.09573e-06
2.46593e-07
-2.119e-06
1.51473e-07
-2.1277e-06
5.41474e-08
-2.12169e-06
-4.41773e-08
-2.10098e-06
-1.42267e-07
-2.06575e-06
-2.38866e-07
-2.01637e-06
-3.32699e-07
-1.95336e-06
-4.22477e-07
-1.87744e-06
-5.06906e-07
-1.7895e-06
-5.84702e-07
-1.6906e-06
-6.54598e-07
-1.58199e-06
-7.15368e-07
-1.46508e-06
-7.65846e-07
-1.34144e-06
-8.0495e-07
-1.21279e-06
-8.3171e-07
-1.08098e-06
-8.45304e-07
-9.47987e-07
-8.45085e-07
-8.15854e-07
-8.30626e-07
-6.86699e-07
-8.01757e-07
-5.62666e-07
-7.58607e-07
-4.45901e-07
-7.01647e-07
-3.38516e-07
-6.31737e-07
-2.42563e-07
-5.50168e-07
-1.60012e-07
-4.58703e-07
-9.27376e-08
-3.59622e-07
-4.2517e-08
-2.55729e-07
-1.10506e-08
-1.50366e-07
-4.76062e-08
-1.281e-08
6.40387e-08
-4.87743e-08
1.94741e-07
-1.05506e-07
3.23366e-07
-1.80661e-07
4.46166e-07
-2.71921e-07
5.60178e-07
-3.76972e-07
6.63015e-07
-4.93516e-07
7.52829e-07
-6.19263e-07
8.28284e-07
-7.51954e-07
8.88496e-07
-8.89367e-07
9.32973e-07
-1.02934e-06
9.61568e-07
-1.16977e-06
9.74418e-07
-1.30867e-06
9.71901e-07
-1.44413e-06
9.54591e-07
-1.57435e-06
9.23223e-07
-1.69768e-06
8.7866e-07
-1.81257e-06
8.21865e-07
-1.91764e-06
7.53885e-07
-2.01163e-06
6.7583e-07
-2.09344e-06
5.8886e-07
-2.1621e-06
4.94182e-07
-2.21681e-06
3.93038e-07
-2.25692e-06
2.86707e-07
-2.28195e-06
1.76499e-07
-2.29155e-06
6.3755e-08
-2.28558e-06
-5.0153e-08
-2.26402e-06
-1.63823e-07
-2.22706e-06
-2.75828e-07
-2.17504e-06
-3.84714e-07
-2.10851e-06
-4.89014e-07
-2.02816e-06
-5.87251e-07
-1.93491e-06
-6.77954e-07
-1.82984e-06
-7.5967e-07
-1.71422e-06
-8.30987e-07
-1.58951e-06
-8.90557e-07
-1.45734e-06
-9.37123e-07
-1.3195e-06
-9.69551e-07
-1.17793e-06
-9.86867e-07
-1.03473e-06
-9.88292e-07
-8.92063e-07
-9.73289e-07
-7.52218e-07
-9.41603e-07
-6.17518e-07
-8.93307e-07
-4.90317e-07
-8.28848e-07
-3.72959e-07
-7.49095e-07
-2.67756e-07
-6.55371e-07
-1.76955e-07
-5.49504e-07
-1.02729e-07
-4.33847e-07
-4.71654e-08
-3.11293e-07
-1.22723e-08
-1.85259e-07
-5.98784e-08
-1.40058e-08
7.80445e-08
-5.32852e-08
2.34021e-07
-1.15146e-07
3.85227e-07
-1.96931e-07
5.27951e-07
-2.96015e-07
6.59261e-07
-4.09797e-07
7.76797e-07
-5.35713e-07
8.78745e-07
-6.71239e-07
9.63811e-07
-8.13907e-07
1.03116e-06
-9.61314e-07
1.08038e-06
-1.11114e-06
1.1114e-06
-1.26117e-06
1.12445e-06
-1.40929e-06
1.12002e-06
-1.5535e-06
1.0988e-06
-1.69195e-06
1.06167e-06
-1.82291e-06
1.00962e-06
-1.94481e-06
9.4376e-07
-2.0562e-06
8.65279e-07
-2.15581e-06
7.7544e-07
-2.24251e-06
6.75557e-07
-2.31532e-06
5.66988e-07
-2.37341e-06
4.51133e-07
-2.41613e-06
3.29425e-07
-2.44296e-06
2.03332e-07
-2.45357e-06
7.4359e-08
-2.44776e-06
-5.59592e-08
-2.42553e-06
-1.86052e-07
-2.38704e-06
-3.14319e-07
-2.33263e-06
-4.39129e-07
-2.26281e-06
-5.58832e-07
-2.1783e-06
-6.71762e-07
-2.07999e-06
-7.76257e-07
-1.969e-06
-8.70668e-07
-1.84659e-06
-9.53388e-07
-1.71428e-06
-1.02287e-06
-1.57373e-06
-1.07767e-06
-1.42681e-06
-1.11647e-06
-1.27555e-06
-1.13812e-06
-1.12215e-06
-1.14169e-06
-9.68925e-07
-1.12651e-06
-8.18326e-07
-1.0922e-06
-6.72867e-07
-1.03877e-06
-5.35122e-07
-9.66594e-07
-4.0768e-07
-8.76536e-07
-2.93123e-07
-7.69929e-07
-1.93989e-07
-6.48637e-07
-1.12755e-07
-5.15081e-07
-5.18191e-08
-3.72229e-07
-1.34917e-08
-2.23587e-07
-7.33701e-08
-1.51909e-08
9.32354e-08
-5.776e-08
2.7659e-07
-1.24718e-07
4.52185e-07
-2.131e-07
6.16333e-07
-3.19976e-07
7.66137e-07
-4.42457e-07
8.99279e-07
-5.77713e-07
1.014e-06
-7.22977e-07
1.10907e-06
-8.75569e-07
1.18375e-06
-1.0329e-06
1.23771e-06
-1.1925e-06
1.271e-06
-1.35202e-06
1.28396e-06
-1.50923e-06
1.27723e-06
-1.66206e-06
1.25163e-06
-1.80858e-06
1.20819e-06
-1.94702e-06
1.14806e-06
-2.07575e-06
1.0725e-06
-2.19333e-06
9.82852e-07
-2.29843e-06
8.80546e-07
-2.38992e-06
7.67048e-07
-2.46681e-06
6.43875e-07
-2.52826e-06
5.12581e-07
-2.57359e-06
3.74757e-07
-2.60229e-06
2.32029e-07
-2.61399e-06
8.60603e-08
-2.60849e-06
-6.14512e-08
-2.58578e-06
-2.08769e-07
-2.54598e-06
-3.5412e-07
-2.48941e-06
-4.95696e-07
-2.41658e-06
-6.31662e-07
-2.32818e-06
-7.60163e-07
-2.2251e-06
-8.79337e-07
-2.10843e-06
-9.87333e-07
-1.97949e-06
-1.08233e-06
-1.83977e-06
-1.16259e-06
-1.69101e-06
-1.22644e-06
-1.53512e-06
-1.27236e-06
-1.37423e-06
-1.29901e-06
-1.21065e-06
-1.30528e-06
-1.04683e-06
-1.29032e-06
-8.85393e-07
-1.25364e-06
-7.29056e-07
-1.1951e-06
-5.80623e-07
-1.11503e-06
-4.42943e-07
-1.01422e-06
-3.18881e-07
-8.93991e-07
-2.11278e-07
-7.5624e-07
-1.22925e-07
-6.03434e-07
-5.65357e-08
-4.38618e-07
-1.47265e-08
-2.65396e-07
-8.80966e-08
-1.63767e-08
1.09612e-07
-6.2236e-08
3.22449e-07
-1.34292e-07
5.2424e-07
-2.29271e-07
7.11313e-07
-3.43939e-07
8.80804e-07
-4.75114e-07
1.03045e-06
-6.19693e-07
1.15858e-06
-7.74666e-07
1.26405e-06
-9.37132e-07
1.34622e-06
-1.10432e-06
1.4049e-06
-1.27359e-06
1.44027e-06
-1.44247e-06
1.45284e-06
-1.60863e-06
1.44339e-06
-1.76992e-06
1.41292e-06
-1.92434e-06
1.36261e-06
-2.07008e-06
1.2938e-06
-2.20548e-06
1.2079e-06
-2.32906e-06
1.10644e-06
-2.43952e-06
9.91e-07
-2.53569e-06
8.63215e-07
-2.61657e-06
7.24758e-07
-2.68133e-06
5.77342e-07
-2.72928e-06
4.2271e-07
-2.7599e-06
2.62646e-07
-2.77281e-06
9.89651e-08
-2.76778e-06
-6.64741e-08
-2.74478e-06
-2.31773e-07
-2.70391e-06
-3.9499e-07
-2.64546e-06
-5.54142e-07
-2.56991e-06
-7.0721e-07
-2.47793e-06
-8.52146e-07
-2.37038e-06
-9.86884e-07
-2.24835e-06
-1.10936e-06
-2.11314e-06
-1.21755e-06
-1.96626e-06
-1.30946e-06
-1.80948e-06
-1.38322e-06
-1.64477e-06
-1.43707e-06
-1.47433e-06
-1.46945e-06
-1.30059e-06
-1.47903e-06
-1.12614e-06
-1.46477e-06
-9.53771e-07
-1.42601e-06
-7.86418e-07
-1.36245e-06
-6.27124e-07
-1.27432e-06
-4.79013e-07
-1.16233e-06
-3.45246e-07
-1.02776e-06
-2.28984e-07
-8.72503e-07
-1.33345e-07
-6.99073e-07
-6.13704e-08
-5.10592e-07
-1.59933e-08
-3.10773e-07
-1.0409e-07
-1.75735e-08
1.27186e-07
-6.67472e-08
3.71622e-07
-1.43932e-07
6.01425e-07
-2.45542e-07
8.12922e-07
-3.68028e-07
1.00329e-06
-5.07914e-07
1.17034e-06
-6.61817e-07
1.31248e-06
-8.26473e-07
1.4287e-06
-9.98762e-07
1.51851e-06
-1.17572e-06
1.58186e-06
-1.35455e-06
1.6191e-06
-1.53265e-06
1.63094e-06
-1.70758e-06
1.61832e-06
-1.87712e-06
1.58246e-06
-2.03923e-06
1.52472e-06
-2.19204e-06
1.44661e-06
-2.33389e-06
1.34975e-06
-2.46328e-06
1.23583e-06
-2.57891e-06
1.10662e-06
-2.6796e-06
9.63908e-07
-2.76437e-06
8.09531e-07
-2.83238e-06
6.45355e-07
-2.88295e-06
4.73278e-07
-2.91554e-06
2.9523e-07
-2.92975e-06
1.1318e-07
-2.92536e-06
-7.08632e-08
-2.90229e-06
-2.54846e-07
-2.86062e-06
-4.36663e-07
-2.8006e-06
-6.1416e-07
-2.72267e-06
-7.85138e-07
-2.62746e-06
-9.47353e-07
-2.51581e-06
-1.09854e-06
-2.38877e-06
-1.23641e-06
-2.24761e-06
-1.3587e-06
-2.09387e-06
-1.4632e-06
-1.92932e-06
-1.54777e-06
-1.75598e-06
-1.61041e-06
-1.57612e-06
-1.64931e-06
-1.39226e-06
-1.66288e-06
-1.20716e-06
-1.64987e-06
-1.02378e-06
-1.60939e-06
-8.45262e-07
-1.54097e-06
-6.74914e-07
-1.44467e-06
-5.16143e-07
-1.3211e-06
-3.72427e-07
-1.17147e-06
-2.47263e-07
-9.97667e-07
-1.44116e-07
-8.02219e-07
-6.63762e-08
-5.88333e-07
-1.73076e-08
-3.59842e-07
-1.21397e-07
-1.87904e-08
1.45976e-07
-7.13248e-08
4.24157e-07
-1.53699e-07
6.83799e-07
-2.62001e-07
9.21224e-07
-3.92361e-07
1.13365e-06
-5.40993e-07
1.31897e-06
-7.04227e-07
1.47572e-06
-8.78541e-07
1.60302e-06
-1.06059e-06
1.70056e-06
-1.2472e-06
1.76848e-06
-1.43544e-06
1.80734e-06
-1.62256e-06
1.81806e-06
-1.80604e-06
1.80181e-06
-1.98359e-06
1.76e-06
-2.1531e-06
1.69423e-06
-2.3127e-06
1.60621e-06
-2.46072e-06
1.49777e-06
-2.59566e-06
1.37077e-06
-2.71621e-06
1.22717e-06
-2.82123e-06
1.06893e-06
-2.90974e-06
8.98038e-07
-2.98091e-06
7.16523e-07
-3.03405e-06
5.26425e-07
-3.06864e-06
3.29818e-07
-3.08427e-06
1.2881e-07
-3.08069e-06
-7.4446e-08
-3.05778e-06
-2.77749e-07
-3.01561e-06
-4.7884e-07
-2.95437e-06
-6.754e-07
-2.87445e-06
-8.65053e-07
-2.77644e-06
-1.04537e-06
-2.66111e-06
-1.21386e-06
-2.52948e-06
-1.36804e-06
-2.3828e-06
-1.50539e-06
-2.22257e-06
-1.62343e-06
-2.05057e-06
-1.71978e-06
-1.86885e-06
-1.79213e-06
-1.67975e-06
-1.83841e-06
-1.48589e-06
-1.85675e-06
-1.29015e-06
-1.84561e-06
-1.09569e-06
-1.80385e-06
-9.05869e-07
-1.73079e-06
-7.24259e-07
-1.62628e-06
-5.54573e-07
-1.49078e-06
-4.00623e-07
-1.32542e-06
-2.66265e-07
-1.13202e-06
-1.55338e-07
-9.13146e-07
-7.16031e-08
-6.72068e-07
-1.86843e-08
-4.1276e-07
-1.40082e-07
-2.0036e-08
1.66012e-07
-7.59973e-08
4.80118e-07
-1.63647e-07
7.71449e-07
-2.7873e-07
1.03631e-06
-4.17041e-07
1.27196e-06
-5.7447e-07
1.4764e-06
-7.47048e-07
1.64829e-06
-9.30986e-07
1.78696e-06
-1.1227e-06
1.89227e-06
-1.31883e-06
1.96461e-06
-1.51628e-06
2.00479e-06
-1.71217e-06
2.01395e-06
-1.9039e-06
1.99354e-06
-2.08911e-06
1.94521e-06
-2.26568e-06
1.8708e-06
-2.43171e-06
1.77225e-06
-2.58553e-06
1.65159e-06
-2.72567e-06
1.51091e-06
-2.85083e-06
1.35233e-06
-2.95991e-06
1.178e-06
-3.05194e-06
9.9007e-07
-3.12612e-06
7.90702e-07
-3.18178e-06
5.82083e-07
-3.21838e-06
3.66419e-07
-3.23552e-06
1.45949e-07
-3.23292e-06
-7.70444e-08
-3.21044e-06
-3.00223e-07
-3.1681e-06
-5.21186e-07
-3.10603e-06
-7.37462e-07
-3.02458e-06
-9.46503e-07
-2.92426e-06
-1.14569e-06
-2.80578e-06
-1.33234e-06
-2.67009e-06
-1.50373e-06
-2.51839e-06
-1.65709e-06
-2.35214e-06
-1.78968e-06
-2.17311e-06
-1.8988e-06
-1.98337e-06
-1.98188e-06
-1.7853e-06
-2.03648e-06
-1.5816e-06
-2.06044e-06
-1.3753e-06
-2.05191e-06
-1.16973e-06
-2.00943e-06
-9.68479e-07
-1.93204e-06
-7.75398e-07
-1.81936e-06
-5.94521e-07
-1.67166e-06
-4.30018e-07
-1.48993e-06
-2.86132e-07
-1.27591e-06
-1.67104e-07
-1.03217e-06
-7.70995e-08
-7.62072e-07
-2.01374e-08
-4.69722e-07
-1.60219e-07
-2.1318e-08
1.8733e-07
-8.07922e-08
5.39592e-07
-1.73828e-07
8.64485e-07
-2.95808e-07
1.15829e-06
-4.42167e-07
1.41832e-06
-6.08453e-07
1.64269e-06
-7.90385e-07
1.83023e-06
-9.83892e-07
1.98046e-06
-1.18515e-06
2.09353e-06
-1.39061e-06
2.17007e-06
-1.59699e-06
2.21117e-06
-1.80132e-06
2.21828e-06
-2.00092e-06
2.19313e-06
-2.19337e-06
2.13766e-06
-2.37653e-06
2.05396e-06
-2.54852e-06
1.94423e-06
-2.70767e-06
1.81075e-06
-2.85256e-06
1.6558e-06
-2.98193e-06
1.4817e-06
-3.09471e-06
1.29078e-06
-3.18998e-06
1.08534e-06
-3.26696e-06
8.67684e-07
-3.32501e-06
6.40132e-07
-3.3636e-06
4.05011e-07
-3.38233e-06
1.64674e-07
-3.38089e-06
-7.84781e-08
-3.35913e-06
-3.21989e-07
-3.31698e-06
-5.63331e-07
-3.25455e-06
-7.99889e-07
-3.1721e-06
-1.02896e-06
-3.07004e-06
-1.24775e-06
-2.94903e-06
-1.45336e-06
-2.80991e-06
-1.64284e-06
-2.65382e-06
-1.81318e-06
-2.48216e-06
-1.96134e-06
-2.29665e-06
-2.08431e-06
-2.09936e-06
-2.17917e-06
-1.89269e-06
-2.24315e-06
-1.67942e-06
-2.27371e-06
-1.46271e-06
-2.26862e-06
-1.24606e-06
-2.22608e-06
-1.03329e-06
-2.14481e-06
-8.28539e-07
-2.02411e-06
-6.36187e-07
-1.86401e-06
-4.60787e-07
-1.66533e-06
-3.06998e-07
-1.4297e-06
-1.79502e-07
-1.15967e-06
-8.29117e-08
-8.58662e-07
-2.16807e-08
-5.30953e-07
-1.819e-07
-2.26446e-08
2.09974e-07
-8.57364e-08
6.02684e-07
-1.84295e-07
9.63044e-07
-3.1331e-07
1.2873e-06
-4.67829e-07
1.57284e-06
-6.43039e-07
1.8179e-06
-8.34324e-07
2.02151e-06
-1.03732e-06
2.18346e-06
-1.24795e-06
2.30416e-06
-1.46247e-06
2.38458e-06
-1.67744e-06
2.42615e-06
-1.88979e-06
2.43063e-06
-2.09675e-06
2.40009e-06
-2.29589e-06
2.33679e-06
-2.48506e-06
2.24313e-06
-2.6624e-06
2.12157e-06
-2.8263e-06
1.97464e-06
-2.97537e-06
1.80487e-06
-3.10842e-06
1.61476e-06
-3.22443e-06
1.4068e-06
-3.32256e-06
1.18346e-06
-3.40205e-06
9.47181e-07
-3.46231e-06
7.00392e-07
-3.50283e-06
4.45528e-07
-3.5232e-06
1.85042e-07
-3.52311e-06
-7.85696e-08
-3.50235e-06
-3.42749e-07
-3.46082e-06
-6.04858e-07
-3.39855e-06
-8.62161e-07
-3.3157e-06
-1.11181e-06
-3.2126e-06
-1.35084e-06
-3.08979e-06
-1.57617e-06
-2.94801e-06
-1.78462e-06
-2.7883e-06
-1.97289e-06
-2.61198e-06
-2.13767e-06
-2.42068e-06
-2.2756e-06
-2.21645e-06
-2.3834e-06
-2.0017e-06
-2.4579e-06
-1.77926e-06
-2.49615e-06
-1.55239e-06
-2.49549e-06
-1.32476e-06
-2.45372e-06
-1.10044e-06
-2.36913e-06
-8.83856e-07
-2.24069e-06
-6.7975e-07
-2.06812e-06
-4.9309e-07
-1.85199e-06
-3.28992e-07
-1.5938e-06
-1.92621e-07
-1.29604e-06
-8.90855e-08
-9.62198e-07
-2.33276e-08
-5.96711e-07
-2.05227e-07
-2.40239e-08
2.33998e-07
-9.08581e-08
6.69518e-07
-1.951e-07
1.06729e-06
-3.31311e-07
1.42351e-06
-4.9412e-07
1.73565e-06
-6.7832e-07
2.0021e-06
-8.78939e-07
2.22213e-06
-1.0913e-06
2.39582e-06
-1.31108e-06
2.52394e-06
-1.53431e-06
2.60781e-06
-1.75743e-06
2.64926e-06
-1.97724e-06
2.65044e-06
-2.19093e-06
2.61379e-06
-2.39605e-06
2.54192e-06
-2.5905e-06
2.43757e-06
-2.77244e-06
2.30351e-06
-2.94033e-06
2.14254e-06
-3.09286e-06
1.9574e-06
-3.22892e-06
1.75082e-06
-3.34759e-06
1.52547e-06
-3.44807e-06
1.28394e-06
-3.5297e-06
1.02881e-06
-3.59191e-06
7.62606e-07
-3.63424e-06
4.8785e-07
-3.65627e-06
2.07075e-07
-3.65769e-06
-7.71496e-08
-3.63825e-06
-3.62188e-07
-3.59779e-06
-6.45315e-07
-3.53626e-06
-9.23694e-07
-3.45372e-06
-1.19435e-06
-3.35038e-06
-1.45418e-06
-3.22664e-06
-1.69991e-06
-3.08314e-06
-1.92812e-06
-2.92075e-06
-2.13528e-06
-2.74068e-06
-2.31774e-06
-2.54448e-06
-2.4718e-06
-2.33411e-06
-2.59377e-06
-2.11196e-06
-2.68005e-06
-1.88089e-06
-2.72722e-06
-1.64424e-06
-2.73214e-06
-1.40585e-06
-2.69211e-06
-1.17002e-06
-2.60496e-06
-9.41485e-07
-2.46922e-06
-7.25366e-07
-2.28424e-06
-5.27078e-07
-2.05027e-06
-3.52238e-07
-1.76864e-06
-2.06547e-07
-1.44173e-06
-9.56668e-08
-1.07308e-06
-2.50919e-08
-6.67286e-07
-2.30319e-07
-2.54652e-08
2.59464e-07
-9.61883e-08
7.40241e-07
-2.06302e-07
1.1774e-06
-3.49893e-07
1.5671e-06
-5.21133e-07
1.90689e-06
-7.14386e-07
2.19535e-06
-9.24294e-07
2.43204e-06
-1.14586e-06
2.61738e-06
-1.37447e-06
2.75255e-06
-1.60597e-06
2.83932e-06
-1.83664e-06
2.87993e-06
-2.06321e-06
2.87701e-06
-2.28284e-06
2.83341e-06
-2.49309e-06
2.75217e-06
-2.69188e-06
2.63636e-06
-2.87748e-06
2.48911e-06
-3.04843e-06
2.31349e-06
-3.20353e-06
2.1125e-06
-3.34179e-06
1.88907e-06
-3.46236e-06
1.64604e-06
-3.56458e-06
1.38615e-06
-3.64784e-06
1.11208e-06
-3.71166e-06
8.26425e-07
-3.7556e-06
5.31789e-07
-3.77928e-06
2.30752e-07
-3.78236e-06
-7.40644e-08
-3.76457e-06
-3.79977e-07
-3.72569e-06
-6.84203e-07
-3.66555e-06
-9.8383e-07
-3.58411e-06
-1.27579e-06
-3.48146e-06
-1.55684e-06
-3.35783e-06
-1.82354e-06
-3.21368e-06
-2.07227e-06
-3.04975e-06
-2.29921e-06
-2.86706e-06
-2.50042e-06
-2.66705e-06
-2.67182e-06
-2.45154e-06
-2.80928e-06
-2.22288e-06
-2.90871e-06
-1.98391e-06
-2.96618e-06
-1.73805e-06
-2.97801e-06
-1.48925e-06
-2.9409e-06
-1.24206e-06
-2.85215e-06
-1.00152e-06
-2.70976e-06
-7.73167e-07
-2.51259e-06
-5.6289e-07
-2.26055e-06
-3.76856e-07
-1.95467e-06
-2.21365e-07
-1.59722e-06
-1.02703e-07
-1.19174e-06
-2.69881e-08
-7.43e-07
-2.57307e-07
-2.69791e-08
2.86443e-07
-1.01763e-07
8.15025e-07
-2.17966e-07
1.2936e-06
-3.69149e-07
1.71829e-06
-5.48975e-07
2.08671e-06
-7.51333e-07
2.39771e-06
-9.7045e-07
2.65116e-06
-1.20097e-06
2.8479e-06
-1.43801e-06
2.98959e-06
-1.67721e-06
3.07851e-06
-1.9147e-06
3.11743e-06
-2.14717e-06
3.10947e-06
-2.37174e-06
3.05799e-06
-2.58603e-06
2.96646e-06
-2.78804e-06
2.83838e-06
-2.97615e-06
2.67722e-06
-3.14902e-06
2.48636e-06
-3.3056e-06
2.26908e-06
-3.44503e-06
2.0285e-06
-3.5666e-06
1.76762e-06
-3.66977e-06
1.48932e-06
-3.75405e-06
1.19635e-06
-3.81901e-06
8.91393e-07
-3.8643e-06
5.77074e-07
-3.88955e-06
2.56002e-07
-3.89443e-06
-6.91839e-08
-3.87862e-06
-3.95784e-07
-3.84184e-06
-7.20988e-07
-3.78382e-06
-1.04184e-06
-3.7044e-06
-1.35521e-06
-3.60349e-06
-1.65775e-06
-3.48116e-06
-1.94587e-06
-3.33766e-06
-2.21576e-06
-3.17353e-06
-2.46335e-06
-2.98959e-06
-2.68436e-06
-2.78709e-06
-2.87432e-06
-2.56771e-06
-3.02866e-06
-2.33367e-06
-3.14276e-06
-2.08777e-06
-3.21209e-06
-1.83344e-06
-3.23234e-06
-1.57477e-06
-3.19957e-06
-1.31651e-06
-3.11042e-06
-1.06402e-06
-2.96224e-06
-8.23265e-07
-2.75335e-06
-6.00656e-07
-2.48316e-06
-4.02967e-07
-2.15236e-06
-2.37166e-07
-1.76302e-06
-1.10243e-07
-1.31866e-06
-2.90315e-08
-8.24211e-07
-2.86339e-07
-2.85787e-08
3.15021e-07
-1.07625e-07
8.94071e-07
-2.30173e-07
1.41615e-06
-3.89189e-07
1.8773e-06
-5.77765e-07
2.27529e-06
-7.89268e-07
2.60921e-06
-1.01747e-06
2.87935e-06
-1.25662e-06
3.08706e-06
-1.50157e-06
3.23454e-06
-1.74773e-06
3.32467e-06
-1.99113e-06
3.36083e-06
-2.2284e-06
3.34674e-06
-2.4567e-06
3.28629e-06
-2.67372e-06
3.18347e-06
-2.87758e-06
3.04223e-06
-3.06679e-06