/*--------------------------------*- C++ -*----------------------------------*\
| =========                 |                                                 |
| \\      /  F ield         | OpenFOAM: The Open Source CFD Toolbox           |
|  \\    /   O peration     | Version:  v2012                                 |
|   \\  /    A nd           | Website:  www.openfoam.com                      |
|    \\/     M anipulation  |                                                 |
\*---------------------------------------------------------------------------*/
FoamFile
{
    version     2.0;
    format      ascii;
    class       volVectorField;
    location    "0.3";
    object      U;
}
// * * * * * * * * * * * * * * * * * * * * * * * * * * * * * * * * * * * * * //

dimensions      [0 1 -1 0 0 0 0];


internalField   nonuniform List<vector> 
2500
(
(3.26665e-05 -3.28091e-05 0)
(9.87575e-05 -4.0715e-05 0)
(0.000137297 -2.09771e-05 0)
(0.000106223 7.85554e-06 0)
(-8.74232e-06 3.77326e-05 0)
(-0.000206044 6.53486e-05 0)
(-0.000478343 8.93918e-05 0)
(-0.000815818 0.000109449 0)
(-0.00120753 0.000125496 0)
(-0.0016422 0.000137671 0)
(-0.00210868 0.00014618 0)
(-0.00259616 0.000151255 0)
(-0.00309437 0.000153135 0)
(-0.00359358 0.000152063 0)
(-0.00408474 0.000148276 0)
(-0.00455945 0.00014201 0)
(-0.00501 0.000133493 0)
(-0.00542939 0.000122948 0)
(-0.00581131 0.000110596 0)
(-0.00615015 9.66544e-05 0)
(-0.00644103 8.13399e-05 0)
(-0.00667978 6.48697e-05 0)
(-0.00686296 4.74634e-05 0)
(-0.00698788 2.93454e-05 0)
(-0.00705261 1.07456e-05 0)
(-0.00705599 -8.09824e-06 0)
(-0.0069977 -2.69407e-05 0)
(-0.00687822 -4.55275e-05 0)
(-0.0066989 -6.3595e-05 0)
(-0.00646197 -8.08713e-05 0)
(-0.00617055 -9.70772e-05 0)
(-0.00582866 -0.000111928 0)
(-0.00544127 -0.000125135 0)
(-0.00501424 -0.000136411 0)
(-0.00455432 -0.000145469 0)
(-0.00406916 -0.00015203 0)
(-0.0035672 -0.000155825 0)
(-0.00305767 -0.000156601 0)
(-0.0025505 -0.00015412 0)
(-0.00205619 -0.000148172 0)
(-0.0015857 -0.000138571 0)
(-0.0011503 -0.00012517 0)
(-0.000761357 -0.000107876 0)
(-0.00042999 -8.66852e-05 0)
(-0.000166604 -6.17802e-05 0)
(1.9941e-05 -3.37499e-05 0)
(0.000123708 -4.07633e-06 0)
(0.000144882 2.37872e-05 0)
(9.98077e-05 4.17695e-05 0)
(3.21221e-05 3.20546e-05 0)
(4.10724e-05 -9.92153e-05 0)
(9.38947e-05 -9.30083e-05 0)
(4.54592e-05 1.44825e-05 0)
(-0.000168768 0.000161836 0)
(-0.00057575 0.000318329 0)
(-0.00117683 0.000467952 0)
(-0.00195964 0.000602378 0)
(-0.00290394 0.000717545 0)
(-0.00398505 0.000811712 0)
(-0.00517607 0.000884418 0)
(-0.00644931 0.000935937 0)
(-0.00777725 0.000966981 0)
(-0.00913307 0.000978526 0)
(-0.0104911 0.000971716 0)
(-0.0118272 0.000947791 0)
(-0.0131187 0.000908057 0)
(-0.0143445 0.000853853 0)
(-0.0154857 0.000786544 0)
(-0.0165249 0.000707511 0)
(-0.0174467 0.000618148 0)
(-0.0182378 0.000519867 0)
(-0.0188867 0.000414099 0)
(-0.0193841 0.000302301 0)
(-0.0197224 0.000185964 0)
(-0.0198967 6.66143e-05 0)
(-0.0199038 -5.41762e-05 0)
(-0.019743 -0.000174792 0)
(-0.0194158 -0.00029357 0)
(-0.0189261 -0.000408805 0)
(-0.01828 -0.000518751 0)
(-0.0174863 -0.000621635 0)
(-0.0165561 -0.000715666 0)
(-0.0155031 -0.000799054 0)
(-0.0143432 -0.000870033 0)
(-0.0130948 -0.000926881 0)
(-0.0117785 -0.000967952 0)
(-0.010417 -0.000991707 0)
(-0.00903483 -0.00099675 0)
(-0.00765823 -0.000981873 0)
(-0.00631468 -0.000946107 0)
(-0.00503248 -0.000888788 0)
(-0.00384019 -0.000809661 0)
(-0.00276589 -0.000709037 0)
(-0.00183607 -0.000588066 0)
(-0.00107414 -0.000449252 0)
(-0.000498199 -0.000297438 0)
(-0.000117609 -0.000141641 0)
(7.24547e-05 1.64327e-06 0)
(0.000102936 0.000101845 0)
(4.21532e-05 9.98192e-05 0)
(2.2488e-05 -0.000139293 0)
(-1.00557e-05 -4.57815e-05 0)
(-0.000234105 0.00023959 0)
(-0.00070598 0.00060925 0)
(-0.0014515 0.00100278 0)
(-0.0024722 0.00138383 0)
(-0.00375228 0.00173087 0)
(-0.00526465 0.00203178 0)
(-0.00697522 0.00228022 0)
(-0.00884588 0.00247345 0)
(-0.0108366 0.00261099 0)
(-0.0129068 0.00269383 0)
(-0.0150167 0.00272397 0)
(-0.0171275 0.002704 0)
(-0.0192026 0.00263698 0)
(-0.0212073 0.00252626 0)
(-0.0231095 0.00237537 0)
(-0.0248798 0.00218799 0)
(-0.0264914 0.00196789 0)
(-0.0279205 0.00171895 0)
(-0.0291465 0.00144511 0)
(-0.0301517 0.00115038 0)
(-0.0309214 0.000838872 0)
(-0.0314444 0.000514792 0)
(-0.0317128 0.000182448 0)
(-0.0317219 -0.000153736 0)
(-0.0314707 -0.00048922 0)
(-0.0309616 -0.000819348 0)
(-0.0302009 -0.00113936 0)
(-0.0291982 -0.00144442 0)
(-0.0279673 -0.00172961 0)
(-0.0265253 -0.00199003 0)
(-0.0248934 -0.00222077 0)
(-0.0230962 -0.00241706 0)
(-0.0211619 -0.00257427 0)
(-0.019122 -0.00268802 0)
(-0.0170111 -0.0027543 0)
(-0.0148665 -0.00276956 0)
(-0.0127277 -0.00273086 0)
(-0.0106357 -0.00263603 0)
(-0.00863265 -0.0024839 0)
(-0.00676042 -0.00227462 0)
(-0.00505957 -0.0020101 0)
(-0.00356769 -0.00169478 0)
(-0.00231716 -0.0013368 0)
(-0.00133222 -0.000950051 0)
(-0.000624775 -0.000557568 0)
(-0.000188766 -0.000196609 0)
(7.09239e-06 7.28015e-05 0)
(2.53584e-05 0.000146485 0)
(-4.90765e-06 -0.000112295 0)
(-0.000153886 0.000164515 0)
(-0.000600134 0.000710304 0)
(-0.00137342 0.00138002 0)
(-0.00248842 0.00208556 0)
(-0.00394252 0.00276954 0)
(-0.00571508 0.00339536 0)
(-0.00777273 0.00394072 0)
(-0.0100738 0.00439289 0)
(-0.0125716 0.00474546 0)
(-0.0152162 0.00499634 0)
(-0.017957 0.00514636 0)
(-0.0207436 0.0051984 0)
(-0.0235266 0.00515672 0)
(-0.0262591 0.0050266 0)
(-0.0288966 0.004814 0)
(-0.0313974 0.00452536 0)
(-0.0337234 0.00416749 0)
(-0.03584 0.00374748 0)
(-0.0377162 0.00327263 0)
(-0.039325 0.0027504 0)
(-0.0406433 0.00218848 0)
(-0.0416522 0.00159472 0)
(-0.0423372 0.000977165 0)
(-0.0426878 0.000344058 0)
(-0.0426982 -0.000296141 0)
(-0.0423671 -0.000934763 0)
(-0.0416978 -0.00156294 0)
(-0.0406986 -0.00217163 0)
(-0.0393823 -0.00275165 0)
(-0.0377666 -0.00329374 0)
(-0.0358741 -0.00378866 0)
(-0.0337322 -0.00422725 0)
(-0.031373 -0.00460058 0)
(-0.0288328 -0.00490008 0)
(-0.0261524 -0.00511774 0)
(-0.0233761 -0.00524627 0)
(-0.0205518 -0.00527936 0)
(-0.0177299 -0.00521195 0)
(-0.0149624 -0.00504055 0)
(-0.0123024 -0.00476373 0)
(-0.00980238 -0.00438266 0)
(-0.00751275 -0.00390196 0)
(-0.00547982 -0.00333093 0)
(-0.00374333 -0.00268542 0)
(-0.00233336 -0.0019907 0)
(-0.00126607 -0.00128591 0)
(-0.000538738 -0.00062997 0)
(-0.00012978 -0.000110772 0)
(-5.92797e-07 0.00013026 0)
(-3.36936e-05 -3.33101e-06 0)
(-0.000310065 0.000567854 0)
(-0.00100036 0.00145835 0)
(-0.00209816 0.0024977 0)
(-0.00360044 0.00357559 0)
(-0.00549653 0.0046161 0)
(-0.00775876 0.00556813 0)
(-0.0103468 0.00639888 0)
(-0.013212 0.00708841 0)
(-0.0162999 0.00762592 0)
(-0.0195527 0.00800703 0)
(-0.0229113 0.00823201 0)
(-0.0263165 0.00830447 0)
(-0.0297106 0.00823036 0)
(-0.0330378 0.00801739 0)
(-0.0362454 0.00767452 0)
(-0.039284 0.00721162 0)
(-0.0421081 0.00663923 0)
(-0.0446764 0.00596844 0)
(-0.0469518 0.00521072 0)
(-0.048902 0.00437793 0)
(-0.0504994 0.00348223 0)
(-0.0517215 0.00253611 0)
(-0.0525507 0.0015524 0)
(-0.0529747 0.000544219 0)
(-0.0529866 -0.00047497 0)
(-0.0525849 -0.00149139 0)
(-0.0517736 -0.00249096 0)
(-0.0505627 -0.00345936 0)
(-0.0489677 -0.00438208 0)
(-0.0470097 -0.00524453 0)
(-0.0447159 -0.00603217 0)
(-0.0421189 -0.00673066 0)
(-0.0392568 -0.00732607 0)
(-0.0361732 -0.00780511 0)
(-0.0329162 -0.00815541 0)
(-0.0295386 -0.00836587 0)
(-0.0260967 -0.00842699 0)
(-0.02265 -0.00833137 0)
(-0.0192597 -0.00807421 0)
(-0.015988 -0.00765404 0)
(-0.012896 -0.00707356 0)
(-0.0100426 -0.00634085 0)
(-0.00748169 -0.00547103 0)
(-0.00526013 -0.00448855 0)
(-0.00341471 -0.00343068 0)
(-0.00196816 -0.00235229 0)
(-0.000925035 -0.00133185 0)
(-0.00028001 -0.000480156 0)
(-2.81819e-05 3.54669e-05 0)
(-6.11614e-05 0.000188467 0)
(-0.000465806 0.0011729 0)
(-0.00140669 0.00249748 0)
(-0.00283789 0.00397674 0)
(-0.00473501 0.0054841 0)
(-0.00707638 0.00692854 0)
(-0.0098252 0.00824629 0)
(-0.0129331 0.00939469 0)
(-0.0163438 0.0103467 0)
(-0.0199957 0.0110869 0)
(-0.0238239 0.0116085 0)
(-0.0277617 0.0119109 0)
(-0.0317428 0.0119983 0)
(-0.0357019 0.0118786 0)
(-0.0395763 0.011562 0)
(-0.0433062 0.0110607 0)
(-0.0468357 0.0103886 0)
(-0.0501132 0.00956029 0)
(-0.0530917 0.00859151 0)
(-0.055729 0.00749857 0)
(-0.0579884 0.00629836 0)
(-0.0598386 0.00500827 0)
(-0.0612537 0.0036462 0)
(-0.0622139 0.00223051 0)
(-0.0627051 0.000780026 0)
(-0.0627195 -0.00068596 0)
(-0.0622554 -0.00214772 0)
(-0.0613175 -0.00358514 0)
(-0.0599171 -0.00497776 0)
(-0.0580717 -0.0063049 0)
(-0.0558056 -0.00754581 0)
(-0.0531495 -0.00867985 0)
(-0.0501405 -0.00968671 0)
(-0.0468218 -0.0105467 0)
(-0.0432427 -0.0112412 0)
(-0.0394578 -0.011753 0)
(-0.0355266 -0.0120664 0)
(-0.0315129 -0.0121687 0)
(-0.0274837 -0.0120497 0)
(-0.0235081 -0.0117034 0)
(-0.0196559 -0.0111282 0)
(-0.0159963 -0.0103288 0)
(-0.0125955 -0.00931697 0)
(-0.00951515 -0.00811396 0)
(-0.00680952 -0.00675296 0)
(-0.00452345 -0.00528274 0)
(-0.0026884 -0.00377246 0)
(-0.00131922 -0.00231707 0)
(-0.000430533 -0.00104483 0)
(-5.45989e-05 -0.000139216 0)
(-8.65265e-05 0.000459829 0)
(-0.000615702 0.00197854 0)
(-0.00180514 0.00382982 0)
(-0.00356968 0.00582077 0)
(-0.00586213 0.00781381 0)
(-0.00864784 0.0097065 0)
(-0.0118792 0.0114247 0)
(-0.0154984 0.0129174 0)
(-0.0194412 0.014151 0)
(-0.0236386 0.0151059 0)
(-0.0280186 0.0157729 0)
(-0.0325079 0.0161507 0)
(-0.0370334 0.0162444 0)
(-0.0415237 0.0160636 0)
(-0.0459097 0.0156214 0)
(-0.0501259 0.0149337 0)
(-0.0541107 0.0140183 0)
(-0.0578075 0.0128949 0)
(-0.0611644 0.011584 0)
(-0.0641351 0.0101073 0)
(-0.0666792 0.00848733 0)
(-0.068762 0.00674737 0)
(-0.0703552 0.00491133 0)
(-0.0714367 0.00300375 0)
(-0.0719912 0.00104984 0)
(-0.0720099 -0.000924594 0)
(-0.0714909 -0.0028932 0)
(-0.0704395 -0.00482908 0)
(-0.0688678 -0.00670497 0)
(-0.0667953 -0.0084933 0)
(-0.0642484 -0.0101665 0)
(-0.061261 -0.011697 0)
(-0.0578736 -0.0130581 0)
(-0.0541338 -0.0142236 0)
(-0.0500957 -0.0151688 0)
(-0.0458192 -0.0158712 0)
(-0.0413698 -0.0163105 0)
(-0.0368174 -0.0164697 0)
(-0.0322356 -0.016336 0)
(-0.0277005 -0.0159019 0)
(-0.0232891 -0.0151657 0)
(-0.0190778 -0.0141339 0)
(-0.0151404 -0.0128219 0)
(-0.0115462 -0.0112569 0)
(-0.008358 -0.0094804 0)
(-0.0056299 -0.00755148 0)
(-0.00340392 -0.00555158 0)
(-0.0017072 -0.00358896 0)
(-0.000575799 -0.00180454 0)
(-7.89996e-05 -0.000390856 0)
(-0.000109802 0.000806401 0)
(-0.000758142 0.00297925 0)
(-0.00219 0.00545124 0)
(-0.00428298 0.00802696 0)
(-0.00696694 0.0105621 0)
(-0.0101932 0.0129461 0)
(-0.0139021 0.0150971 0)
(-0.0180255 0.016957 0)
(-0.0224903 0.0184873 0)
(-0.0272196 0.0196647 0)
(-0.0321346 0.0204782 0)
(-0.0371552 0.0209261 0)
(-0.0422025 0.0210145 0)
(-0.047199 0.0207552 0)
(-0.0520704 0.0201645 0)
(-0.056746 0.0192621 0)
(-0.0611595 0.0180705 0)
(-0.0652499 0.0166142 0)
(-0.0689613 0.0149194 0)
(-0.072244 0.0130136 0)
(-0.0750543 0.0109254 0)
(-0.0773549 0.00868439 0)
(-0.0791153 0.00632103 0)
(-0.0803117 0.00386662 0)
(-0.0809274 0.00135328 0)
(-0.0809529 -0.00118614 0)
(-0.0803862 -0.00371806 0)
(-0.0792326 -0.00620826 0)
(-0.0775051 -0.00862206 0)
(-0.0752243 -0.0109244 0)
(-0.0724188 -0.0130803 0)
(-0.0691245 -0.0150549 0)
(-0.0653851 -0.0168141 0)
(-0.0612516 -0.0183249 0)
(-0.056782 -0.0195562 0)
(-0.0520409 -0.0204793 0)
(-0.0470987 -0.0210687 0)
(-0.042031 -0.0213033 0)
(-0.0369173 -0.021167 0)
(-0.0318401 -0.0206503 0)
(-0.0268832 -0.0197514 0)
(-0.0221302 -0.0184779 0)
(-0.0176628 -0.0168488 0)
(-0.0135586 -0.0148965 0)
(-0.00988949 -0.0126697 0)
(-0.00672024 -0.0102366 0)
(-0.00410471 -0.00768876 0)
(-0.00208346 -0.0051448 0)
(-0.000714198 -0.00275462 0)
(-0.000101373 -0.000715369 0)
(-0.00013129 0.00122385 0)
(-0.000893335 0.00416798 0)
(-0.00256016 0.00735484 0)
(-0.00497455 0.0105894 0)
(-0.00804411 0.0137238 0)
(-0.0117056 0.0166422 0)
(-0.0158867 0.0192572 0)
(-0.0205079 0.0215058 0)
(-0.0254868 0.0233455 0)
(-0.0307383 0.0247506 0)
(-0.036176 0.0257089 0)
(-0.0417136 0.026219 0)
(-0.0472661 0.0262886 0)
(-0.0527507 0.0259318 0)
(-0.0580882 0.0251687 0)
(-0.0632033 0.0240232 0)
(-0.0680258 0.0225226 0)
(-0.0724907 0.020697 0)
(-0.0765389 0.0185784 0)
(-0.0801176 0.0162005 0)
(-0.0831806 0.0135984 0)
(-0.0856884 0.0108085 0)
(-0.0876085 0.00786823 0)
(-0.0889157 0.00481596 0)
(-0.0895923 0.00169119 0)
(-0.0896279 -0.00146572 0)
(-0.0890202 -0.00461353 0)
(-0.0877745 -0.00771026 0)
(-0.0859044 -0.0107133 0)
(-0.0834314 -0.0135797 0)
(-0.0803852 -0.0162665 0)
(-0.0768038 -0.018731 0)
(-0.0727331 -0.0209312 0)
(-0.068227 -0.0228269 0)
(-0.0633468 -0.0243799 0)
(-0.058161 -0.0255549 0)
(-0.0527444 -0.0263208 0)
(-0.0471776 -0.0266515 0)
(-0.0415458 -0.0265274 0)
(-0.0359375 -0.0259365 0)
(-0.0304434 -0.0248761 0)
(-0.0251545 -0.0233547 0)
(-0.0201605 -0.0213938 0)
(-0.0155481 -0.0190304 0)
(-0.0113995 -0.0163193 0)
(-0.00779074 -0.013336 0)
(-0.00478848 -0.0101805 0)
(-0.00244731 -0.00697944 0)
(-0.000846078 -0.00388905 0)
(-0.000122033 -0.00110872 0)
(-0.000151365 0.00170838 0)
(-0.00102229 0.00553772 0)
(-0.00291682 0.00953304 0)
(-0.00564534 0.0135013 0)
(-0.00909403 0.0172929 0)
(-0.0131852 0.0207893 0)
(-0.0178331 0.0238995 0)
(-0.0229468 0.0265573 0)
(-0.0284335 0.0287179 0)
(-0.0341997 0.0303542 0)
(-0.0401513 0.0314538 0)
(-0.0461954 0.0320165 0)
(-0.0522412 0.032052 0)
(-0.0582008 0.0315777 0)
(-0.0639902 0.0306174 0)
(-0.0695302 0.0292 0)
(-0.0747468 0.0273581 0)
(-0.079572 0.0251275 0)
(-0.0839438 0.0225466 0)
(-0.0878069 0.0196556 0)
(-0.0911128 0.0164964 0)
(-0.0938203 0.0131124 0)
(-0.0958954 0.00954851 0)
(-0.0973115 0.00585051 0)
(-0.0980498 0.00206554 0)
(-0.0980994 -0.00175818 0)
(-0.0974574 -0.00557142 0)
(-0.0961291 -0.00932407 0)
(-0.0941282 -0.0129653 0)
(-0.0914766 -0.0164437 0)
(-0.0882052 -0.019708 0)
(-0.084353 -0.0227072 0)
(-0.0799679 -0.0253911 0)
(-0.0751058 -0.0277115 0)
(-0.0698309 -0.0296225 0)
(-0.0642152 -0.031082 0)
(-0.0583373 -0.0320524 0)
(-0.0522825 -0.0325023 0)
(-0.0461414 -0.0324075 0)
(-0.0400085 -0.0317531 0)
(-0.0339814 -0.0305348 0)
(-0.0281589 -0.0287611 0)
(-0.0226393 -0.0264553 0)
(-0.017519 -0.0236576 0)
(-0.0128911 -0.0204277 0)
(-0.00884388 -0.0168474 0)
(-0.0054575 -0.013023 0)
(-0.00280069 -0.00908756 0)
(-0.000972691 -0.00520215 0)
(-0.000141393 -0.00156752 0)
(-0.00017039 0.00225695 0)
(-0.00114631 0.00708238 0)
(-0.00326235 0.0119788 0)
(-0.00629848 0.0167557 0)
(-0.0101204 0.0212634 0)
(-0.0146359 0.025382 0)
(-0.019746 0.0290189 0)
(-0.0253476 0.0321063 0)
(-0.0313374 0.0345986 0)
(-0.0376126 0.0364686 0)
(-0.0440715 0.0377048 0)
(-0.0506145 0.0383092 0)
(-0.0571447 0.0382941 0)
(-0.0635693 0.0376811 0)
(-0.0698 0.0364984 0)
(-0.0757538 0.0347801 0)
(-0.0813535 0.0325646 0)
(-0.0865283 0.0298941 0)
(-0.0912137 0.0268135 0)
(-0.0953524 0.0233697 0)
(-0.0988943 0.0196121 0)
(-0.101796 0.0155912 0)
(-0.104024 0.0113595 0)
(-0.105548 0.00697049 0)
(-0.10635 0.00247923 0)
(-0.106418 -0.00205801 0)
(-0.105749 -0.00658377 0)
(-0.104347 -0.0110395 0)
(-0.102226 -0.0153658 0)
(-0.0994089 -0.0195028 0)
(-0.0959257 -0.0233902 0)
(-0.0918169 -0.0269684 0)
(-0.0871315 -0.0301786 0)
(-0.0819272 -0.0329641 0)
(-0.0762706 -0.0352708 0)
(-0.0702362 -0.0370488 0)
(-0.0639067 -0.0382537 0)
(-0.0573715 -0.0388477 0)
(-0.0507264 -0.0388017 0)
(-0.0440721 -0.0380967 0)
(-0.0375133 -0.036726 0)
(-0.0311568 -0.0346971 0)
(-0.0251102 -0.0320338 0)
(-0.0194803 -0.0287787 0)
(-0.0143718 -0.0249951 0)
(-0.00988589 -0.0207694 0)
(-0.00611656 -0.0162133 0)
(-0.00314683 -0.011465 0)
(-0.00109567 -0.00668954 0)
(-0.000159872 -0.00208927 0)
(-0.000188695 0.00286729 0)
(-0.00126677 0.00879716 0)
(-0.0035996 0.0146865 0)
(-0.0069382 0.0203471 0)
(-0.0111285 0.0256302 0)
(-0.0160642 0.0304158 0)
(-0.0216327 0.0346112 0)
(-0.0277185 0.0381487 0)
(-0.0342075 0.0409831 0)
(-0.0409876 0.0430885 0)
(-0.0479488 0.0444559 0)
(-0.0549846 0.0450899 0)
(-0.0619923 0.045007 0)
(-0.0688742 0.0442332 0)
(-0.0755377 0.0428021 0)
(-0.0818965 0.0407537 0)
(-0.0878704 0.0381327 0)
(-0.0933861 0.0349879 0)
(-0.0983773 0.031371 0)
(-0.102785 0.0273364 0)
(-0.106558 0.0229406 0)
(-0.109651 0.0182419 0)
(-0.112029 0.0133003 0)
(-0.113662 0.00817729 0)
(-0.114531 0.00293594 0)
(-0.114623 -0.00235928 0)
(-0.113934 -0.00764253 0)
(-0.112467 -0.0128467 0)
(-0.110237 -0.0179037 0)
(-0.107266 -0.0227445 0)
(-0.103584 -0.0273001 0)
(-0.0992313 -0.0315015 0)
(-0.0942585 -0.0352809 0)
(-0.0887242 -0.0385726 0)
(-0.0826968 -0.0413138 0)
(-0.0762533 -0.0434462 0)
(-0.0694796 -0.0449174 0)
(-0.0624694 -0.0456829 0)
(-0.0553235 -0.0457072 0)
(-0.0481488 -0.0449665 0)
(-0.0410574 -0.0434504 0)
(-0.0341645 -0.0411645 0)
(-0.0275876 -0.0381319 0)
(-0.0214444 -0.0343962 0)
(-0.0158519 -0.030023 0)
(-0.010925 -0.0251024 0)
(-0.00677174 -0.0197504 0)
(-0.0034896 -0.0141095 0)
(-0.00121678 -0.00834862 0)
(-0.000177863 -0.00267243 0)
(-0.000206563 0.00353787 0)
(-0.00138498 0.0106787 0)
(-0.00393148 0.0176519 0)
(-0.0075691 0.0242712 0)
(-0.0121246 0.0303893 0)
(-0.0174775 0.0358872 0)
(-0.0235017 0.0406732 0)
(-0.0300691 0.0446811 0)
(-0.0370544 0.0478678 0)
(-0.0443358 0.05021 0)
(-0.0517951 0.051702 0)
(-0.0593187 0.0523529 0)
(-0.066798 0.0521839 0)
(-0.0741303 0.0512267 0)
(-0.0812193 0.0495209 0)
(-0.0879752 0.0471129 0)
(-0.0943154 0.0440544 0)
(-0.100165 0.0404013 0)
(-0.105455 0.0362125 0)
(-0.110126 0.0315501 0)
(-0.114124 0.0264781 0)
(-0.117406 0.0210624 0)
(-0.119934 0.0153709 0)
(-0.121678 0.00947311 0)
(-0.122617 0.00344004 0)
(-0.122738 -0.00265555 0)
(-0.122036 -0.00873936 0)
(-0.120515 -0.0147356 0)
(-0.118187 -0.0205674 0)
(-0.115074 -0.0261566 0)
(-0.111206 -0.0314248 0)
(-0.106623 -0.0362936 0)
(-0.101375 -0.0406858 0)
(-0.0955229 -0.044526 0)
(-0.0891352 -0.0477419 0)
(-0.0822915 -0.0502662 0)
(-0.0750803 -0.0520379 0)
(-0.0675994 -0.0530042 0)
(-0.0599547 -0.0531226 0)
(-0.0522594 -0.0523631 0)
(-0.0446329 -0.0507106 0)
(-0.0371996 -0.0481671 0)
(-0.0300872 -0.044754 0)
(-0.0234251 -0.0405145 0)
(-0.0173432 -0.0355155 0)
(-0.0119705 -0.0298494 0)
(-0.00742974 -0.0236359 0)
(-0.00383305 -0.0170213 0)
(-0.00133775 -0.0101788 0)
(-0.000195725 -0.00331643 0)
(-0.000224242 0.00426785 0)
(-0.00150215 0.0127251 0)
(-0.0042608 0.0208725 0)
(-0.00819575 0.0285256 0)
(-0.0131148 0.0355385 0)
(-0.0188834 0.0417941 0)
(-0.0253618 0.0472028 0)
(-0.0324089 0.0517014 0)
(-0.0398883 0.0552499 0)
(-0.047668 0.0578294 0)
(-0.0556216 0.0594389 0)
(-0.063628 0.0600929 0)
(-0.071573 0.0598188 0)
(-0.079349 0.0586546 0)
(-0.0868559 0.0566472 0)
(-0.0940011 0.05385 0)
(-0.1007 0.0503222 0)
(-0.106875 0.0461273 0)
(-0.112457 0.0413321 0)
(-0.117385 0.0360062 0)
(-0.121606 0.0302213 0)
(-0.125074 0.0240514 0)
(-0.127751 0.0175721 0)
(-0.129607 0.0108607 0)
(-0.13062 0.00399638 0)
(-0.130777 -0.00293986 0)
(-0.130071 -0.00986538 0)
(-0.128505 -0.0166958 0)
(-0.126091 -0.0233451 0)
(-0.122849 -0.0297262 0)
(-0.118808 -0.0357512 0)
(-0.114008 -0.0413318 0)
(-0.1085 -0.0463809 0)
(-0.102342 -0.0508128 0)
(-0.0956054 -0.0545454 0)
(-0.0883706 -0.0575013 0)
(-0.0807291 -0.0596097 0)
(-0.0727821 -0.0608087 0)
(-0.0646404 -0.0610475 0)
(-0.0564236 -0.0602885 0)
(-0.048259 -0.0585105 0)
(-0.0402801 -0.0557104 0)
(-0.0326255 -0.0519066 0)
(-0.0254369 -0.0471404 0)
(-0.0188577 -0.0414788 0)
(-0.0130318 -0.0350158 0)
(-0.00809734 -0.0278738 0)
(-0.00418125 -0.0202031 0)
(-0.00146027 -0.0121814 0)
(-0.000213786 -0.0040216 0)
(-0.000241942 0.00505698 0)
(-0.00161937 0.0149356 0)
(-0.00459019 0.0243477 0)
(-0.00882253 0.0331095 0)
(-0.0141051 0.0410769 0)
(-0.0202894 0.0481355 0)
(-0.0272214 0.0541988 0)
(-0.0347472 0.0592077 0)
(-0.0427187 0.063127 0)
(-0.0509939 0.0659434 0)
(-0.0594374 0.0676621 0)
(-0.0679213 0.0683044 0)
(-0.0763253 0.0679051 0)
(-0.0845374 0.0665098 0)
(-0.0924538 0.0641731 0)
(-0.0999794 0.0609568 0)
(-0.107027 0.0569282 0)
(-0.11352 0.0521586 0)
(-0.119386 0.0467232 0)
(-0.124565 0.0406993 0)
(-0.129003 0.0341668 0)
(-0.132653 0.0272073 0)
(-0.135479 0.0199042 0)
(-0.137449 0.0123428 0)
(-0.13854 0.00461021 0)
(-0.138739 -0.00320472 0)
(-0.138038 -0.011011 0)
(-0.136439 -0.0187157 0)
(-0.133951 -0.0262241 0)
(-0.130594 -0.0334396 0)
(-0.126396 -0.0402649 0)
(-0.121396 -0.0466016 0)
(-0.115641 -0.0523523 0)
(-0.109193 -0.0574206 0)
(-0.10212 -0.0617135 0)
(-0.0945051 -0.0651427 0)
(-0.0864416 -0.0676267 0)
(-0.0780342 -0.0690931 0)
(-0.0693982 -0.0694813 0)
(-0.0606596 -0.0687448 0)
(-0.0519535 -0.0668545 0)
(-0.0434232 -0.0638009 0)
(-0.0352185 -0.0595975 0)
(-0.0274939 -0.0542826 0)
(-0.0204075 -0.0479218 0)
(-0.0141186 -0.0406098 0)
(-0.00878125 -0.0324712 0)
(-0.00453811 -0.0236603 0)
(-0.00158594 -0.0143597 0)
(-0.000232341 -0.00478913 0)
(-0.000259848 0.00590556 0)
(-0.00173762 0.017311 0)
(-0.00492208 0.0280782 0)
(-0.00945346 0.0380236 0)
(-0.0151012 0.0470053 0)
(-0.0217022 0.0549117 0)
(-0.0290884 0.0616608 0)
(-0.0370924 0.0671987 0)
(-0.0455541 0.0714966 0)
(-0.0543213 0.0745482 0)
(-0.0632498 0.0763664 0)
(-0.0722045 0.0769809 0)
(-0.0810594 0.076435 0)
(-0.089698 0.0747832 0)
(-0.0980135 0.0720892 0)
(-0.105908 0.0684237 0)
(-0.113295 0.0638625 0)
(-0.120093 0.0584861 0)
(-0.126234 0.0523776 0)
(-0.131655 0.045623 0)
(-0.136303 0.0383098 0)
(-0.140133 0.0305276 0)
(-0.143105 0.0223675 0)
(-0.145189 0.0139223 0)
(-0.146363 0.0052869 0)
(-0.146611 -0.00344212 0)
(-0.145924 -0.0121658 0)
(-0.144303 -0.0207828 0)
(-0.141757 -0.0291897 0)
(-0.138301 -0.037281 0)
(-0.133964 -0.0449494 0)
(-0.128781 -0.0520865 0)
(-0.122799 -0.058584 0)
(-0.116076 -0.0643344 0)
(-0.108683 -0.069233 0)
(-0.100702 -0.0731796 0)
(-0.0922282 -0.0760808 0)
(-0.0833682 -0.0778524 0)
(-0.0742423 -0.0784223 0)
(-0.0649827 -0.0777335 0)
(-0.0557325 -0.0757472 0)
(-0.0466448 -0.0724458 0)
(-0.0378812 -0.0678361 0)
(-0.0296101 -0.0619517 0)
(-0.0220044 -0.0548556 0)
(-0.01524 -0.0466422 0)
(-0.00948792 -0.0374378 0)
(-0.0049074 -0.0274007 0)
(-0.00171624 -0.0167192 0)
(-0.000251666 -0.00562103 0)
(-0.000278119 0.0068144 0)
(-0.00185779 0.0198531 0)
(-0.00525865 0.0320663 0)
(-0.0100923 0.0432705 0)
(-0.0161083 0.0533257 0)
(-0.0231284 0.0621241 0)
(-0.03097 0.0695891 0)
(-0.0394518 0.0756734 0)
(-0.0484015 0.080356 0)
(-0.0576563 0.0836392 0)
(-0.0670633 0.0855454 0)
(-0.0764801 0.0861141 0)
(-0.0857753 0.0853987 0)
(-0.0948283 0.0834639 0)
(-0.103529 0.0803836 0)
(-0.11178 0.0762381 0)
(-0.11949 0.0711132 0)
(-0.126581 0.0650982 0)
(-0.132984 0.0582853 0)
(-0.138636 0.0507687 0)
(-0.143486 0.042644 0)
(-0.147487 0.0340086 0)
(-0.150602 0.024961 0)
(-0.152802 0.0156014 0)
(-0.154061 0.00603178 0)
(-0.154364 -0.00364361 0)
(-0.153703 -0.0133183 0)
(-0.152074 -0.022883 0)
(-0.149485 -0.0322258 0)
(-0.14595 -0.0412323 0)
(-0.141493 -0.0497856 0)
(-0.136149 -0.0577669 0)
(-0.129961 -0.0650567 0)
(-0.122986 -0.071536 0)
(-0.115293 -0.0770875 0)
(-0.106963 -0.0815981 0)
(-0.0980926 -0.0849612 0)
(-0.0887912 -0.0870792 0)
(-0.0791827 -0.087867 0)
(-0.069405 -0.087255 0)
(-0.0596093 -0.0851928 0)
(-0.0499589 -0.0816525 0)
(-0.0406277 -0.0766325 0)
(-0.0317981 -0.0701598 0)
(-0.0236593 -0.0622936 0)
(-0.0164047 -0.0531264 0)
(-0.0102235 -0.042786 0)
(-0.0052927 -0.0314345 0)
(-0.0018526 -0.0192668 0)
(-0.000272016 -0.00652004 0)
(-0.000296903 0.00778471 0)
(-0.0019807 0.0225646 0)
(-0.00560196 0.0363157 0)
(-0.0107425 0.0488539 0)
(-0.017131 0.0600415 0)
(-0.0245737 0.069775 0)
(-0.0328723 0.0779844 0)
(-0.0418314 0.0846303 0)
(-0.0512661 0.0897013 0)
(-0.0610027 0.0932101 0)
(-0.0708795 0.0951903 0)
(-0.0807471 0.095693 0)
(-0.0904688 0.0947832 0)
(-0.0999203 0.0925374 0)
(-0.10899 0.0890406 0)
(-0.117577 0.0843842 0)
(-0.125593 0.0786643 0)
(-0.132959 0.07198 0)
(-0.139607 0.0644326 0)
(-0.145476 0.0561249 0)
(-0.150514 0.0471606 0)
(-0.154679 0.0376444 0)
(-0.157932 0.0276822 0)
(-0.160244 0.0173811 0)
(-0.161592 0.00684989 0)
(-0.161958 -0.00380038 0)
(-0.161332 -0.014456 0)
(-0.159711 -0.0250005 0)
(-0.157097 -0.0353137 0)
(-0.153504 -0.0452726 0)
(-0.148952 -0.0547507 0)
(-0.143472 -0.0636191 0)
(-0.137104 -0.0717469 0)
(-0.129903 -0.0790026 0)
(-0.121934 -0.085256 0)
(-0.113278 -0.0903798 0)
(-0.104031 -0.0942528 0)
(-0.0943042 -0.0967625 0)
(-0.0842242 -0.0978087 0)
(-0.0739346 -0.0973072 0)
(-0.0635946 -0.0951937 0)
(-0.0533775 -0.0914279 0)
(-0.04347 -0.0859972 0)
(-0.0340696 -0.0789205 0)
(-0.0253825 -0.0702508 0)
(-0.0176211 -0.0600782 0)
(-0.010994 -0.0485307 0)
(-0.00569745 -0.0357744 0)
(-0.00199639 -0.0220113 0)
(-0.000293635 -0.00748964 0)
(-0.000316337 0.00881811 0)
(-0.00210713 0.0254494 0)
(-0.00595396 0.0408314 0)
(-0.0114074 0.054779 0)
(-0.0181739 0.0671569 0)
(-0.0260433 0.0778671 0)
(-0.0348009 0.0868471 0)
(-0.0442364 0.0940672 0)
(-0.0541517 0.0995274 0)
(-0.0643622 0.103253 0)
(-0.0746972 0.10529 0)
(-0.0850006 0.105703 0)
(-0.0951307 0.104572 0)
(-0.10496 0.101985 0)
(-0.114375 0.0980403 0)
(-0.123276 0.0928414 0)
(-0.131574 0.0864954 0)
(-0.139192 0.0791119 0)
(-0.146063 0.0708017 0)
(-0.152129 0.0616763 0)
(-0.157341 0.0518472 0)
(-0.161656 0.0414265 0)
(-0.165039 0.0305267 0)
(-0.167461 0.0192614 0)
(-0.168898 0.00774562 0)
(-0.169333 -0.00390344 0)
(-0.168754 -0.0155657 0)
(-0.167156 -0.0271176 0)
(-0.16454 -0.038432 0)
(-0.160914 -0.0493773 0)
(-0.156294 -0.0598181 0)
(-0.150708 -0.069615 0)
(-0.144193 -0.0786258 0)
(-0.136797 -0.0867062 0)
(-0.128583 -0.093712 0)
(-0.119631 -0.0995009 0)
(-0.110033 -0.103935 0)
(-0.0999012 -0.106887 0)
(-0.0893659 -0.108237 0)
(-0.078575 -0.107885 0)
(-0.067695 -0.10575 0)
(-0.0569096 -0.101778 0)
(-0.0464185 -0.0959407 0)
(-0.036435 -0.0882478 0)
(-0.0271837 -0.0787441 0)
(-0.0188969 -0.0675153 0)
(-0.0118049 -0.0546891 0)
(-0.00612497 -0.0404352 0)
(-0.00214894 -0.0249632 0)
(-0.000316761 -0.008534 0)
(-0.000336557 0.00991665 0)
(-0.00223784 0.0285122 0)
(-0.00631657 0.0456195 0)
(-0.0120901 0.0610521 0)
(-0.0192414 0.0746775 0)
(-0.0275421 0.0864038 0)
(-0.0367605 0.0961777 0)
(-0.0466704 0.103981 0)
(-0.0570602 0.109827 0)
(-0.0677338 0.113756 0)
(-0.0785118 0.115829 0)
(-0.0892314 0.116126 0)
(-0.0997465 0.114743 0)
(-0.109927 0.111782 0)
(-0.11966 0.107357 0)
(-0.128845 0.101583 0)
(-0.137394 0.0945801 0)
(-0.145234 0.0864688 0)
(-0.152301 0.0773696 0)
(-0.15854 0.0674026 0)
(-0.163903 0.0566873 0)
(-0.168352 0.0453426 0)
(-0.171852 0.0334872 0)
(-0.174378 0.0212403 0)
(-0.175904 0.00872243 0)
(-0.176414 -0.00394377 0)
(-0.175895 -0.0166327 0)
(-0.174338 -0.0292149 0)
(-0.171742 -0.0415564 0)
(-0.168111 -0.0535182 0)
(-0.163457 -0.0649561 0)
(-0.157801 -0.0757208 0)
(-0.151175 -0.0856585 0)
(-0.143624 -0.0946119 0)
(-0.135204 -0.102422 0)
(-0.125991 -0.108931 0)
(-0.116075 -0.113982 0)
(-0.105568 -0.117429 0)
(-0.0946003 -0.119135 0)
(-0.0833243 -0.118978 0)
(-0.0719134 -0.11686 0)
(-0.0605614 -0.112705 0)
(-0.0494815 -0.106472 0)
(-0.0389035 -0.0981559 0)
(-0.0290714 -0.0877911 0)
(-0.0202396 -0.0754573 0)
(-0.0126617 -0.0612806 0)
(-0.00657851 -0.0454338 0)
(-0.00231154 -0.0281347 0)
(-0.000341633 -0.00965797 0)
(-0.000357707 0.0110827 0)
(-0.00237364 0.0317587 0)
(-0.0066918 0.0506875 0)
(-0.0127939 0.0676807 0)
(-0.0203376 0.0826091 0)
(-0.0290749 0.0953883 0)
(-0.0387556 0.105976 0)
(-0.0491367 0.114367 0)
(-0.0599921 0.120591 0)
(-0.0711145 0.124704 0)
(-0.0823154 0.126787 0)
(-0.0934259 0.126938 0)
(-0.104296 0.125268 0)
(-0.114795 0.121899 0)
(-0.124809 0.116957 0)
(-0.134239 0.110575 0)
(-0.143003 0.102885 0)
(-0.151029 0.0940188 0)
(-0.158256 0.0841067 0)
(-0.164635 0.0732779 0)
(-0.170123 0.0616593 0)
(-0.174683 0.0493761 0)
(-0.178286 0.0365527 0)
(-0.180904 0.0233131 0)
(-0.182518 0.00978236 0)
(-0.183108 -0.00391262 0)
(-0.18266 -0.0176417 0)
(-0.181164 -0.0312705 0)
(-0.178614 -0.0446593 0)
(-0.17501 -0.0576624 0)
(-0.170359 -0.0701277 0)
(-0.164676 -0.0818963 0)
(-0.157986 -0.092803 0)
(-0.150325 -0.102677 0)
(-0.141747 -0.111345 0)
(-0.132318 -0.11863 0)
(-0.122127 -0.124359 0)
(-0.111281 -0.128362 0)
(-0.0999123 -0.130481 0)
(-0.0881746 -0.130572 0)
(-0.0762479 -0.128514 0)
(-0.0643358 -0.12421 0)
(-0.052665 -0.117599 0)
(-0.0414827 -0.108659 0)
(-0.0310536 -0.0974104 0)
(-0.0216563 -0.0839254 0)
(-0.0135698 -0.0683266 0)
(-0.00706132 -0.0507891 0)
(-0.00248555 -0.0315394 0)
(-0.000368497 -0.0108671 0)
(-0.000379947 0.0123192 0)
(-0.00251544 0.0351958 0)
(-0.00708184 0.056044 0)
(-0.0135225 0.0746734 0)
(-0.0214672 0.0909586 0)
(-0.0306466 0.104824 0)
(-0.0407903 0.11624 0)
(-0.0516373 0.125218 0)
(-0.0629465 0.131805 0)
(-0.0744987 0.136079 0)
(-0.0860967 0.13814 0)
(-0.0975659 0.138107 0)
(-0.108754 0.136112 0)
(-0.119529 0.132295 0)
(-0.129779 0.126801 0)
(-0.139408 0.119777 0)
(-0.148339 0.111369 0)
(-0.156504 0.101722 0)
(-0.163849 0.0909761 0)
(-0.170329 0.0792692 0)
(-0.175906 0.0667353 0)
(-0.18055 0.0535054 0)
(-0.184233 0.0397084 0)
(-0.186932 0.0254724 0)
(-0.188627 0.0109256 0)
(-0.1893 -0.00380184 0)
(-0.188935 -0.0185766 0)
(-0.18752 -0.0332606 0)
(-0.185046 -0.0477097 0)
(-0.181507 -0.0617726 0)
(-0.176902 -0.07529 0)
(-0.171241 -0.0880942 0)
(-0.164539 -0.100009 0)
(-0.156826 -0.110851 0)
(-0.148146 -0.120429 0)
(-0.138558 -0.12855 0)
(-0.128144 -0.135019 0)
(-0.117008 -0.139645 0)
(-0.105278 -0.142242 0)
(-0.093111 -0.142643 0)
(-0.0806914 -0.140699 0)
(-0.0682318 -0.136288 0)
(-0.0559725 -0.129326 0)
(-0.0441787 -0.119768 0)
(-0.0331375 -0.10762 0)
(-0.0231535 -0.0929417 0)
(-0.0145344 -0.0758502 0)
(-0.0075767 -0.0565222 0)
(-0.00267233 -0.0351927 0)
(-0.000397614 -0.0121675 0)
(-0.000403466 0.0136295 0)
(-0.00266426 0.0388313 0)
(-0.00748925 0.0616991 0)
(-0.01428 0.0820401 0)
(-0.0226353 0.0997334 0)
(-0.0322624 0.114714 0)
(-0.0428689 0.126967 0)
(-0.054174 0.136523 0)
(-0.0659209 0.143452 0)
(-0.0778783 0.147855 0)
(-0.0898405 0.149855 0)
(-0.101628 0.149595 0)
(-0.113087 0.147231 0)
(-0.124086 0.142923 0)
(-0.134516 0.136837 0)
(-0.144287 0.129135 0)
(-0.153326 0.11998 0)
(-0.161575 0.109529 0)
(-0.168984 0.0979319 0)
(-0.175517 0.0853356 0)
(-0.181142 0.0718805 0)
(-0.185834 0.0577026 0)
(-0.18957 0.0429345 0)
(-0.19233 0.0277068 0)
(-0.194098 0.01215 0)
(-0.194855 -0.00360421 0)
(-0.194586 -0.0194207 0)
(-0.193274 -0.0351594 0)
(-0.190907 -0.050673 0)
(-0.187473 -0.065806 0)
(-0.182965 -0.0803934 0)
(-0.177382 -0.0942593 0)