/*--------------------------------*- C++ -*----------------------------------*\
| =========                 |                                                 |
| \\      /  F ield         | OpenFOAM: The Open Source CFD Toolbox           |
|  \\    /   O peration     | Version:  v2012                                 |
|   \\  /    A nd           | Website:  www.openfoam.com                      |
|    \\/     M anipulation  |                                                 |
\*---------------------------------------------------------------------------*/
FoamFile
{
    version     2.0;
    format      ascii;
    class       volScalarField;
    location    "0.2";
    object      p;
}
// * * * * * * * * * * * * * * * * * * * * * * * * * * * * * * * * * * * * * //

dimensions      [0 2 -2 0 0 0 0];


internalField   nonuniform List<scalar> 
1250
(
4.73466e-06
-0.000557546
-0.00229375
-0.00491403
-0.00800117
-0.0112257
-0.0143308
-0.0171163
-0.0194312
-0.0211646
-0.0222389
-0.0226036
-0.0222308
-0.0211119
-0.0192541
-0.0166785
-0.0134178
-0.00951516
-0.00502234
1.09083e-06
0.00548887
0.0113689
0.0175641
0.023993
0.0305708
0.000572417
9.56983e-06
-0.00142945
-0.00352214
-0.00597433
-0.00854493
-0.0110318
-0.0132682
-0.015122
-0.016492
-0.0173043
-0.0175086
-0.0170745
-0.0159891
-0.0142545
-0.0118857
-0.00890899
-0.00536049
-0.00128481
0.00326591
0.00823303
0.0135523
0.0191545
0.0249666
0.0309119
0.00231088
0.00144828
-8.91146e-07
-0.00189128
-0.0040354
-0.00625029
-0.00837501
-0.010273
-0.0118322
-0.0129641
-0.013602
-0.0136992
-0.0132263
-0.0121694
-0.0105281
-0.00831406
-0.00554939
-0.00226547
0.00149822
0.00569504
0.0102721
0.0151711
0.020329
0.0256791
0.0311513
0.00495946
0.00355518
0.00186608
-5.37472e-05
-0.00212067
-0.00419303
-0.00614135
-0.00785607
-0.00924502
-0.0102336
-0.0107647
-0.0107974
-0.0103055
-0.0092765
-0.00770967
-0.00561521
-0.00301285
6.91077e-05
0.00359481
0.00752168
0.0118012
0.0163797
0.0211991
0.0261975
0.0313101
0.00813855
0.00606378
0.00400735
0.00193095
-0.000184978
-0.00223254
-0.0041087
-0.00572866
-0.00701952
-0.00792094
-0.00838597
-0.0083808
-0.0078839
-0.00688515
-0.00538487
-0.00339289
-0.000927616
0.00198481
0.0053113
0.0090125
0.0130435
0.0173547
0.0218919
0.0265977
0.0314118
0.0115596
0.00875991
0.00626007
0.0039387
0.00168069
-0.000432599
-0.00231964
-0.0039174
-0.0051707
-0.00603279
-0.00646709
-0.00644737
-0.0059574
-0.00499046
-0.00354869
-0.00164249
0.000710207
0.00348456
0.00664945
0.010168
0.0139983
0.0180938
0.0224039
0.0268747
0.0314495
0.0150023
0.0114651
0.00847936
0.00585215
0.00338335
0.00113448
-0.000829626
-0.00246447
-0.00373051
-0.00459353
-0.00502687
-0.00501196
-0.00453821
-0.0036028
-0.00221037
-0.000372553
0.00189244
0.00456035
0.0076013
0.0109803
0.0146575
0.0185889
0.0227266
0.0270198
0.0314145
0.0182955
0.0140297
0.0105383
0.00756706
0.00484069
0.00240642
0.00031644
-0.00140015
-0.00271737
-0.00361221
-0.00406725
-0.00407128
-0.0036194
-0.002713
-0.00135957
0.000427478
0.00262914
0.00522112
0.00817421
0.0114545
0.0150239
0.0188402
0.0228576
0.0270275
0.0312981
0.0213054
0.016329
0.0123259
0.0089881
0.00597366
0.00331975
0.00106932
-0.000761274
-0.00215761
-0.00310656
-0.00359907
-0.00363089
-0.00320267
-0.00232004
-0.00099363
0.000761078
0.00292385
0.00546992
0.00837017
0.0115914
0.0150965
0.0188446
0.0227915
0.0268901
0.0310904
0.0239252
0.0182582
0.0137445
0.0100279
0.00670631
0.00381014
0.00137569
-0.000591086
-0.00208561
-0.00310338
-0.00364289
-0.00370629
-0.00329954
-0.00243251
-0.00111903
0.000623092
0.0027721
0.00530239
0.00818455
0.0113856
0.0148689
0.0185945
0.0225193
0.0265972
0.0307794
0.026067
0.0197275
0.0147073
0.010606
0.00696615
0.00381369
0.00118034
-0.000936563
-0.00254083
-0.00363547
-0.00422574
-0.00431972
-0.00392836
-0.00306564
-0.00174868
2.28275e-06
0.00216374
0.00470894
0.00760789
0.0108274
0.014331
0.0180792
0.0220294
0.0261362
0.0303514
0.0276548
0.0206571
0.0151353
0.0106473
0.00668347
0.00326704
0.000426628
-0.00184763
-0.00356678
-0.00474049
-0.00538011
-0.00549914
-0.00511327
-0.00424048
-0.0029011
-0.00111796
0.00108352
0.00367526
0.00662638
0.00990318
0.0134691
0.0172846
0.0213073
0.0254921
0.0297911
0.0286202
0.020974
0.0149548
0.0100801
0.0057902
0.00210678
-0.000943589
-0.00337696
-0.00521075
-0.00646058
-0.00714336
-0.00727769
-0.00688374
-0.00598331
-0.0046
-0.00275924
-0.000488503
0.00218259
0.00522209
0.00859557
0.012266
0.0161936
0.020336
0.0246478
0.0290811
0.0288989
0.0206092
0.014095
0.00883456
0.00421885
0.000268863
-0.00299022
-0.00557994
-0.00752348
-0.0088419
-0.00955734
-0.00969321
-0.00927398
-0.00832524
-0.00687377
-0.0049477
-0.00257664
0.000208109
0.00337333
0.00688367
0.0107014
0.0147864
0.0190958
0.023584
0.0282025
0.0284276
0.0194947
0.0124863
0.00684106
0.00190142
-0.00231214
-0.00577534
-0.0085148
-0.0105591
-0.0119345
-0.012668
-0.0127878
-0.0123226
-0.0113016
-0.00975499
-0.00771351
-0.00520904
-0.00227468
0.00105494
0.00474341
0.00875221
0.0130405
0.0175649
0.0222792
0.0271346
0.0271423
0.0175621
0.010058
0.00402897
-0.00123172
-0.00570379
-0.00936366
-0.0122429
-0.0143752
-0.015792
-0.0165252
-0.0166075
-0.016072
-0.0149517
-0.01328
-0.0110904
-0.00841725
-0.00529546
-0.00176119
0.00214795
0.00639253
0.0109309
0.0157191
0.0207103
0.0258547
0.0249767
0.014741
0.00673767
0.000325238
-0.00525286
-0.00997663
-0.0138232
-0.0168289
-0.019033
-0.0204718
-0.0211823
-0.0212021
-0.0205684
-0.0193182
-0.0174883
-0.0151153
-0.0122357
-0.00888657
-0.00510567
-0.00093184
0.00359449
0.00843091
0.0135327
0.0188522
0.0243391
0.0218602
0.0109571
0.00244903
-0.00434673
-0.0102379
-0.0152049
-0.0192256
-0.0223416
-0.0245975
-0.0260351
-0.0266967
-0.0266247
-0.025861
-0.0244467
-0.0224223
-0.0198273
-0.016701
-0.0130824
-0.00901098
-0.00452682
0.00032862
0.00551213
0.0109782
0.0166788
0.0225626
0.0177178
0.00613142
-0.00288881
-0.0100683
-0.0162676
-0.0214676
-0.0256473
-0.0288538
-0.0311378
-0.0325468
-0.0331287
-0.0329314
-0.0320018
-0.0303854
-0.0281264
-0.0252678
-0.0218515
-0.0179188
-0.0135107
-0.00866883
-0.00343543
0.00214551
0.00802794
0.0141632
0.0204993
0.0124681
0.000179056
-0.00936276
-0.0169267
-0.0234282
-0.0288491
-0.0331697
-0.0364434
-0.0387273
-0.0400756
-0.0405424
-0.0401815
-0.0390452
-0.037184
-0.0346464
-0.0314788
-0.027726
-0.0234318
-0.0186388
-0.0133898
-0.007728
-0.001698
0.00465381
0.0112784
0.0181234
0.00602281
-0.00699222
-0.017067
-0.0250162
-0.0318129
-0.0374401
-0.0418801
-0.0451932
-0.0474441
-0.0486941
-0.0490046
-0.0484361
-0.0470472
-0.0448936
-0.0420285
-0.0385024
-0.0343632
-0.0296569
-0.024428
-0.0187205
-0.0125783
-0.00604633
0.000828926
0.00799836
0.0154096
-0.00171461
-0.0154832
-0.0261042
-0.0344398
-0.0415231
-0.0473391
-0.0518727
-0.0551921
-0.0573709
-0.0584787
-0.0585852
-0.0577587
-0.0560647
-0.0535651
-0.0503186
-0.0463797
-0.0417998
-0.0366275
-0.0309091
-0.0246895
-0.0180132
-0.0109251
-0.00347138
0.00429918
0.0123347
-0.01085
-0.0254046
-0.0365876
-0.0453104
-0.0526697
-0.0586531
-0.0632492
-0.0665355
-0.0685958
-0.0695097
-0.0693565
-0.0682136
-0.0661547
-0.0632488
-0.0595603
-0.0551489
-0.0500696
-0.0443736
-0.0381089
-0.0313213
-0.0240554
-0.0163558
-0.00826806
0.000160262
0.00887819
-0.0215003
-0.0368791
-0.0486425
-0.0577529
-0.0653749
-0.0714995
-0.0761201
-0.0793257
-0.081212
-0.0818708
-0.0813926
-0.0798656
-0.0773729
-0.073992
-0.0697941
-0.0648441
-0.0592012
-0.0529194
-0.0460483
-0.0386343
-0.0307218
-0.0223545
-0.0135766
-0.00443387
0.00502446
-0.0337952
-0.0500438
-0.0624088
-0.0719066
-0.0797742
-0.0860073
-0.0906061
-0.093673
-0.0953187
-0.095649
-0.0947686
-0.0927782
-0.0897724
-0.0858381
-0.0810544
-0.0754925
-0.0692159
-0.0622813
-0.05474
-0.0466387
-0.0380211
-0.0289291
-0.0194049
-0.00949165
0.000764168
-0.0478797
-0.0650527
-0.0780444
-0.0879281
-0.0960191
-0.10232
-0.106839
-0.109696
-0.11102
-0.110934
-0.10956
-0.107013
-0.103402
-0.0988239
-0.0933682
-0.0871124
-0.0801248
-0.0724653
-0.0641862
-0.055334
-0.0459512
-0.0360772
-0.025751
-0.0150123
-0.00390353
-0.0639173
-0.082081
-0.0957291
-0.105995
-0.114281
-0.120597
-0.124964
-0.127524
-0.128427
-0.127819
-0.12584
-0.122627
-0.118302
-0.112977
-0.106751
-0.0997099
-0.0919265
-0.0834637
-0.0743749
-0.0647059
-0.0544966
-0.0437833
-0.0326007
-0.0209834
-0.00896878
-0.0820945
-0.10133
-0.115669
-0.126311
-0.134753
-0.141017
-0.145142
-0.147296
-0.147655
-0.146395
-0.14368
-0.139669
-0.134504
-0.128313
-0.121205
-0.113275
-0.104602
-0.0952518
-0.0852772
-0.0747228
-0.0636251
-0.052016
-0.0399243
-0.0273785
-0.0144087
-0.102627
-0.123034
-0.138106
-0.149112
-0.157658
-0.163784
-0.167551
-0.16916
-0.168826
-0.166754
-0.163144
-0.15818
-0.152027
-0.14483
-0.136713
-0.127779
-0.118114
-0.107784
-0.0968433
-0.0853329
-0.0732849
-0.060725
-0.0476746
-0.034154
-0.0201849
-0.125766
-0.147469
-0.163322
-0.174674
-0.183255
-0.189129
-0.192389
-0.19328
-0.192062
-0.188986
-0.184288
-0.178185
-0.170868
-0.162505
-0.153234
-0.143168
-0.132396
-0.120989
-0.108998
-0.0964602
-0.0834008
-0.0698377
-0.0557832
-0.0412475
-0.0262413
-0.15181
-0.174965
-0.191657
-0.203325
-0.211845
-0.217316
-0.219876
-0.219828
-0.217493
-0.213173
-0.207152
-0.199688
-0.191004
-0.181289
-0.170699
-0.159357
-0.147356
-0.134768
-0.121639
-0.108001
-0.0938715
-0.0792571
-0.0641591
-0.048575
-0.0325024
-0.181122
-0.205923
-0.223521
-0.235456
-0.243782
-0.24865
-0.250259
-0.248992
-0.245243
-0.239384
-0.231758
-0.222669
-0.212377
-0.201098
-0.189004
-0.176227
-0.162865
-0.148985
-0.13463
-0.119822
-0.104567
-0.088859
-0.0726859
-0.0560296
-0.0388719
-0.214145
-0.240839
-0.259418
-0.271542
-0.279489
-0.283485
-0.283814
-0.280965
-0.275431
-0.26767
-0.258096
-0.247069
-0.234891
-0.221806
-0.208
-0.193616
-0.178751
-0.163467
-0.147798
-0.131753
-0.115325
-0.0984909
-0.0812215
-0.063481
-0.0452323
-0.251433
-0.280334
-0.299974
-0.312166
-0.319472
-0.322228
-0.320844
-0.315948
-0.308162
-0.298051
-0.286117
-0.272785
-0.258399
-0.243234
-0.227491
-0.211315
-0.1948
-0.178
-0.160933
-0.143593
-0.125953
-0.107971
-0.089598
-0.0707758
-0.0514461
-0.293692
-0.3252
-0.345981
-0.358049
-0.364339
-0.365354
-0.361682
-0.354139
-0.343513
-0.330505
-0.315717
-0.299648
-0.28269
-0.265142
-0.247216
-0.229057
-0.210747
-0.192322
-0.173783
-0.155101
-0.136226
-0.117092
-0.0976236
-0.0777406
-0.0573585
-0.341842
-0.376465
-0.398454
-0.410091
-0.414824
-0.413408
-0.406682
-0.395717
-0.381515
-0.36494
-0.346714
-0.327412
-0.307473
-0.287215
-0.266851
-0.246515
-0.226269
-0.206126
-0.186057
-0.166005
-0.14589
-0.125619
-0.105087
-0.0841854
-0.0628019
-0.397096
-0.435487
-0.458707
-0.469426
-0.471815
-0.467007
-0.456206
-0.440821
-0.422123
-0.401173
-0.378824
-0.355729
-0.332362
-0.309049
-0.285992
-0.263296
-0.240992
-0.219057
-0.197424
-0.176
-0.154668
-0.133301
-0.111763
-0.089911
-0.067603
-0.461104
-0.504094
-0.528468
-0.537489
-0.536374
-0.526838
-0.510596
-0.489505
-0.465173
-0.438885
-0.411627
-0.384119
-0.356854
-0.330141
-0.304148
-0.278935
-0.254483
-0.230718
-0.207523
-0.184759
-0.162267
-0.139879
-0.117422
-0.0947181
-0.0715915
-0.536159
-0.584799
-0.61004
-0.616099
-0.609762
-0.593624
-0.570117
-0.541681
-0.510323
-0.477568
-0.444523
-0.411944
-0.380307
-0.349873
-0.320741
-0.292901
-0.26626
-0.240675
-0.215968
-0.191942
-0.168388
-0.145093
-0.121841
-0.0984185
-0.0746123
-0.625548
-0.681127
-0.706517
-0.707554
-0.69343
-0.668063
-0.634869
-0.597018
-0.556965
-0.516458
-0.476681
-0.43837
-0.401925
-0.367505
-0.335102
-0.304597
-0.275797
-0.248472
-0.222364
-0.197211
-0.172744
-0.1487
-0.12482
-0.100849
-0.0765378
-0.734155
-0.798139
-0.822091
-0.81472
-0.788963
-0.750693
-0.70463
-0.654801
-0.604105
-0.554445
-0.50698
-0.46233
-0.420732
-0.382172
-0.346476
-0.313373
-0.282544
-0.253643
-0.226324
-0.200244
-0.175073
-0.150491
-0.126193
-0.101885
-0.0772822
-0.869549
-0.943256
-0.962443
-0.941066
-0.897912
-0.841648
-0.778606
-0.713716
-0.650208
-0.589965
-0.533947
-0.482499
-0.435574
-0.39289
-0.354039
-0.318551
-0.285944
-0.255742
-0.227491
-0.200763
-0.175158
-0.150304
-0.125848
-0.101459
-0.0768142
-1.04405
-1.12758
-1.13521
-1.09056
-1.02143
-0.940224
-0.855054
-0.771568
-0.693005
-0.620891
-0.555699
-0.497276
-0.445125
-0.398583
-0.356931
-0.319453
-0.285473
-0.254367
-0.225564
-0.198549
-0.172852
-0.148048
-0.123742
-0.0995658
-0.0751688
-1.27893
-1.36798
-1.35028
-1.26712
-1.15945
-1.04412
-0.930692
-0.824885
-0.729264
-0.644421
-0.569914
-0.504794
-0.44792
-0.398122
-0.354298
-0.315445
-0.280671
-0.249194
-0.220328
-0.193471
-0.168092
-0.143715
-0.11991
-0.0962808
-0.0724533
-1.61289
-1.69017
-1.61932
-1.47289
-1.30891
-1.14803
-0.999754
-0.868355
-0.754491
-0.656951
-0.573801
-0.50295
-0.442403
-0.390382
-0.345343
-0.305976
-0.271173
-0.240001
-0.211668
-0.185497
-0.160906
-0.137382
-0.11447
-0.0917539
-0.0688463
-2.1167
-2.13162
-1.95349
-1.7052
-1.46123
-1.24197
-1.05308
-0.894458
-0.762891
-0.654189
-0.564276
-0.489575
-0.427089
-0.374367
-0.329426
-0.290662
-0.256778
-0.226716
-0.199604
-0.174714
-0.151431
-0.129223
-0.107623
-0.086209
-0.0645911
-2.91882
-2.74199
-2.35914
-1.95416
-1.60136
-1.31132
-1.07886
-0.894541
-0.748488
-0.632197
-0.538857
-0.463191
-0.401167
-0.349709
-0.306461
-0.269597
-0.237692
-0.209613
-0.184448
-0.161453
-0.140005
-0.119574
-0.0996995
-0.0799678
-0.0599991
-4.30829
-3.58025
-2.81236
-2.18395
-1.69676
-1.33088
-1.05969
-0.857441
-0.704501
-0.587056
-0.495422
-0.422776
-0.364275
-0.316434
-0.276695
-0.24315
-0.214341
-0.189141
-0.166654
-0.146158
-0.127055
-0.108843
-0.0910848
-0.0733929
-0.0554104
-7.0462
-4.67305
-3.13913
-2.23595
-1.63554
-1.22713
-0.948436
-0.752909
-0.611091
-0.505294
-0.424444
-0.36132
-0.311075
-0.270362
-0.236794
-0.208624
-0.18454
-0.163531
-0.144802
-0.127713
-0.111737
-0.0964306
-0.0814089
-0.0663299
-0.0508795
-11.6814
-5.75834
-2.98805
-1.87144
-1.28236
-0.928289
-0.706899
-0.559731
-0.455666
-0.378789
-0.320218
-0.274516
-0.238144
-0.208684
-0.18441
-0.164046
-0.146623
-0.131387
-0.117736
-0.105179
-0.0933097
-0.0817805
-0.0702884
-0.0585619
-0.0463502
)
;

boundaryField
{
    movingWall
    {
        type            zeroGradient;
    }
    fixedWalls
    {
        type            zeroGradient;
    }
    frontAndBack
    {
        type            empty;
    }
    procBoundary0to1
    {
        type            processor;
        value           nonuniform List<scalar> 
50
(
0.0372101
0.0369117
0.0366734
0.0364699
0.0362713
0.0360693
0.0358548
0.0356162
0.0353408
0.0350152
0.034625
0.0341541
0.0335855
0.0329005
0.0320791
0.0310997
0.0299396
0.0285748
0.0269807
0.0251326
0.0230062
0.0205789
0.0178304
0.0147447
0.0113116
0.00752833
0.00340174
-0.00104941
-0.00579239
-0.0107786
-0.0159416
-0.0211966
-0.0264402
-0.0315513
-0.0363948
-0.0408258
-0.0446968
-0.0478668
-0.0502127
-0.0516416
-0.0521035
-0.0516039
-0.0502125
-0.0480681
-0.0453759
-0.0423969
-0.0394317
-0.0367991
-0.0347592
-0.0334143
)
;
    }
}


// ************************************************************************* //
