/*--------------------------------*- C++ -*----------------------------------*\
| =========                 |                                                 |
| \\      /  F ield         | OpenFOAM: The Open Source CFD Toolbox           |
|  \\    /   O peration     | Version:  v2012                                 |
|   \\  /    A nd           | Website:  www.openfoam.com                      |
|    \\/     M anipulation  |                                                 |
\*---------------------------------------------------------------------------*/
FoamFile
{
    version     2.0;
    format      ascii;
    class       surfaceScalarField;
    location    "0.2";
    object      phi;
}
// * * * * * * * * * * * * * * * * * * * * * * * * * * * * * * * * * * * * * //

dimensions      [0 3 -1 0 0 0 0];
oriented        oriented;


internalField   nonuniform List<scalar> 
2425
(
1.17856e-09
-1.18468e-09
2.41633e-09
-1.23768e-09
2.51552e-09
-9.91397e-11
1.03818e-09
1.4773e-09
-2.09601e-09
3.13412e-09
-6.79914e-09
4.70306e-09
-1.29011e-08
6.10188e-09
-2.01943e-08
7.29313e-09
-2.8457e-08
8.26266e-09
-3.74654e-08
9.00842e-09
-4.70006e-08
9.53511e-09
-5.6852e-08
9.8513e-09
-6.682e-08
9.96786e-09
-7.67171e-08
9.89703e-09
-8.6369e-08
9.65188e-09
-9.56151e-08
9.24595e-09
-1.04308e-07
8.69305e-09
-1.12315e-07
8.00714e-09
-1.19518e-07
7.2023e-09
-1.2581e-07
6.29268e-09
-1.31103e-07
5.2926e-09
-1.3532e-07
4.21653e-09
-1.38399e-07
3.07919e-09
-1.40295e-07
1.89563e-09
6.8133e-10
1.24912e-09
-2.43376e-09
1.44715e-09
-1.43567e-09
-1.16036e-09
2.50831e-09
-7.37982e-09
7.69671e-09
-1.74612e-08
1.32155e-08
-3.12963e-08
1.85382e-08
-4.856e-08
2.33656e-08
-6.88028e-08
2.7536e-08
-9.15094e-08
3.09692e-08
-1.16134e-07
3.36335e-08
-1.42126e-07
3.55272e-08
-1.68943e-07
3.66677e-08
-1.9606e-07
3.70848e-08
-2.22979e-07
3.68162e-08
-2.49232e-07
3.5905e-08
-2.74384e-07
3.43977e-08
-2.98034e-07
3.23433e-08
-3.19819e-07
2.97922e-08
-3.39413e-07
2.67963e-08
-3.56528e-07
2.3408e-08
-3.70916e-07
1.9681e-08
-3.8237e-07
1.56699e-08
-3.90721e-07
1.14303e-08
-3.95845e-07
7.0194e-09
2.49551e-09
1.54312e-10
-2.58804e-09
-2.40364e-09
1.12223e-09
-9.3464e-09
9.451e-09
-2.15107e-08
1.98609e-08
-3.91622e-08
3.0867e-08
-6.21547e-08
4.15306e-08
-9.00589e-08
5.12698e-08
-1.22264e-07
5.97407e-08
-1.58047e-07
6.67529e-08
-1.96629e-07
7.22152e-08
-2.37204e-07
7.61022e-08
-2.78969e-07
7.84325e-08
-3.21139e-07
7.92549e-08
-3.62961e-07
7.86384e-08
-4.03723e-07
7.66664e-08
-4.42757e-07
7.3432e-08
-4.79449e-07
6.90351e-08
-5.13237e-07
6.35807e-08
-5.43618e-07
5.71774e-08
-5.70147e-07
4.99369e-08
-5.9244e-07
4.19735e-08
-6.10174e-07
3.3404e-08
-6.23092e-07
2.43482e-08
-6.31001e-07
1.49284e-08
5.27025e-09
-1.37672e-09
-1.21132e-09
-7.52009e-09
7.26552e-09
-1.9697e-08
2.16279e-08
-3.8548e-08
3.87118e-08
-6.42182e-08
5.65371e-08
-9.64594e-08
7.37718e-08
-1.3473e-07
8.954e-08
-1.7828e-07
1.03291e-07
-2.26227e-07
1.147e-07
-2.77606e-07
1.23594e-07
-3.31413e-07
1.29909e-07
-3.86637e-07
1.33656e-07
-4.42282e-07
1.349e-07
-4.97388e-07
1.33744e-07
-5.51038e-07
1.30317e-07
-6.02374e-07
1.24768e-07
-6.50599e-07
1.1726e-07
-6.94986e-07
1.07967e-07
-7.34878e-07
9.70699e-08
-7.69698e-07
8.47564e-08
-7.98944e-07
7.12197e-08
-8.22198e-07
5.6658e-08
-8.39124e-07
4.12744e-08
-8.49473e-07
2.52773e-08
8.8802e-09
-3.01826e-09
1.80693e-09
-1.31018e-08
1.7349e-08
-3.09615e-08
3.94876e-08
-5.69062e-08
6.46565e-08
-9.08592e-08
9.04901e-08
-1.32408e-07
1.1532e-07
-1.80868e-07
1.38e-07
-2.35352e-07
1.57776e-07
-2.9483e-07
1.74178e-07
-3.5818e-07
1.86944e-07
-4.24234e-07
1.95963e-07
-4.91811e-07
2.01233e-07
-5.59741e-07
2.02831e-07
-6.26893e-07
2.00895e-07
-6.92181e-07
1.95605e-07
-7.54586e-07
1.87173e-07
-8.13161e-07
1.75834e-07
-8.67036e-07
1.61842e-07
-9.1543e-07
1.45463e-07
-9.57649e-07
1.26976e-07
-9.93096e-07
1.06666e-07
-1.02127e-06
8.48305e-08
-1.04177e-06
6.17719e-08
-1.05429e-06
3.78017e-08
1.32392e-08
-4.63689e-09
6.44381e-09
-1.87378e-08
3.14498e-08
-4.24349e-08
6.31847e-08
-7.5638e-08
9.78595e-08
-1.17983e-07
1.32835e-07
-1.68842e-07
1.66179e-07
-2.27356e-07
1.96514e-07
-2.92483e-07
2.22902e-07
-3.63046e-07
2.4474e-07
-4.37779e-07
2.61677e-07
-5.15369e-07
2.73553e-07
-5.94486e-07
2.8035e-07
-6.73816e-07
2.82161e-07
-7.52079e-07
2.79159e-07
-8.28053e-07
2.71579e-07
-9.00582e-07
2.59702e-07
-9.68591e-07
2.43844e-07
-1.0311e-06
2.24346e-07
-1.0872e-06
2.01572e-07
-1.13613e-06
1.75901e-07
-1.17719e-06
1.47728e-07
-1.20982e-06
1.17457e-07
-1.23355e-06
8.55073e-08
-1.24806e-06
5.23069e-08
1.82956e-08
-6.18094e-09
1.26248e-08
-2.42339e-08
4.95027e-08
-5.37481e-08
9.26989e-08
-9.42151e-08
1.38326e-07
-1.44949e-07
1.83569e-07
-2.05069e-07
2.26299e-07
-2.73512e-07
2.64958e-07
-3.49064e-07
2.98454e-07
-4.30393e-07
3.2607e-07
-5.1609e-07
3.47374e-07
-6.04703e-07
3.62166e-07
-6.9477e-07
3.70417e-07
-7.84847e-07
3.72238e-07
-8.7353e-07
3.67842e-07
-9.59475e-07
3.57524e-07
-1.04141e-06
3.4164e-07
-1.11816e-06
3.20592e-07
-1.18864e-06
2.94821e-07
-1.25186e-06
2.64794e-07
-1.30696e-06
2.31003e-07
-1.35319e-06
1.93958e-07
-1.38992e-06
1.54188e-07
-1.41665e-06
1.12235e-07
-1.433e-06
6.86575e-08
2.4028e-08
-7.63841e-09
2.02632e-08
-2.95176e-08
7.13819e-08
-6.4739e-08
1.2792e-07
-1.12384e-07
1.85972e-07
-1.71432e-07
2.42617e-07
-2.40726e-07
2.95594e-07
-3.18979e-07
3.43211e-07
-4.04784e-07
3.8426e-07
-4.96645e-07
4.1793e-07
-5.93003e-07
4.43732e-07
-6.92271e-07
4.61434e-07
-7.92861e-07
4.71007e-07
-8.93211e-07
4.72587e-07
-9.91803e-07
4.66435e-07
-1.08719e-06
4.5291e-07
-1.178e-06
4.32452e-07
-1.26297e-06
4.05558e-07
-1.34092e-06
3.72772e-07
-1.4108e-06
3.34677e-07
-1.47168e-06
2.91883e-07
-1.52275e-06
2.45026e-07
-1.56333e-06
1.94767e-07
-1.59288e-06
1.41782e-07
-1.61099e-06
8.67685e-08
3.04414e-08
-9.01516e-09
2.92784e-08
-3.45804e-08
9.69472e-08
-7.53647e-08
1.68704e-07
-1.30061e-07
2.40668e-07
-1.97311e-07
3.09867e-07
-2.75674e-07
3.73957e-07
-3.63621e-07
4.31157e-07
-4.59539e-07
4.80178e-07
-5.61754e-07
5.20145e-07
-6.68554e-07
5.50532e-07
-7.78213e-07
5.71093e-07
-8.89019e-07
5.81813e-07
-9.99296e-07
5.82864e-07
-1.10743e-06
5.74564e-07
-1.21186e-06
5.57348e-07
-1.31116e-06
5.31744e-07
-1.40395e-06
4.98354e-07
-1.48901e-06
4.57833e-07
-1.56522e-06
4.10884e-07
-1.63158e-06
3.58247e-07
-1.68725e-06
3.00691e-07
-1.73149e-06
2.39013e-07
-1.76375e-06
1.74034e-07
-1.78357e-06
1.06596e-07
3.75642e-08
-1.03241e-08
3.96027e-08
-3.94452e-08
1.26068e-07
-8.56473e-08
2.14907e-07
-1.47258e-07
3.02279e-07
-2.22591e-07
3.85199e-07
-3.09916e-07
4.61282e-07
-4.0745e-07
5.28691e-07
-5.13366e-07
5.86093e-07
-6.25801e-07
6.32581e-07
-7.42881e-07
6.67612e-07
-8.6274e-07
6.90951e-07
-9.83539e-07
7.02613e-07
-1.10349e-06
7.02819e-07
-1.22089e-06
6.91957e-07
-1.33409e-06
6.7055e-07
-1.44157e-06
6.39224e-07
-1.54191e-06
5.98691e-07
-1.6338e-06
5.49729e-07
-1.71609e-06
4.93169e-07
-1.78772e-06
4.29883e-07
-1.84781e-06
3.60782e-07
-1.8956e-06
2.86805e-07
-1.93049e-06
2.08923e-07
-1.95203e-06
1.2813e-07
4.54449e-08
-1.15805e-08
5.11833e-08
-4.41493e-08
1.58637e-07
-9.56427e-08
2.664e-07
-1.64046e-07
3.70682e-07
-2.47351e-07
4.68505e-07
-3.43539e-07
5.57469e-07
-4.50569e-07
6.35722e-07
-5.6639e-07
7.01913e-07
-6.88942e-07
7.55133e-07
-8.16183e-07
7.94853e-07
-9.46099e-07
8.20867e-07
-1.07673e-06
8.33241e-07
-1.20617e-06
8.32265e-07
-1.33263e-06
8.18411e-07
-1.45438e-06
7.923e-07
-1.56982e-06
7.5467e-07
-1.67749e-06
7.06353e-07
-1.77601e-06
6.48256e-07
-1.86419e-06
5.81345e-07
-1.94094e-06
5.06633e-07
-2.00534e-06
4.25177e-07
-2.05659e-06
3.38064e-07
-2.09409e-06
2.46417e-07
-2.11734e-06
1.51386e-07
5.41493e-08
-1.27994e-08
6.39827e-08
-4.8735e-08
1.94572e-07
-1.05422e-07
3.23087e-07
-1.80519e-07
4.4578e-07
-2.71708e-07
5.59694e-07
-3.7668e-07
6.62441e-07
-4.93135e-07
7.52177e-07
-6.18787e-07
8.27566e-07
-7.51378e-07
8.87724e-07
-8.88687e-07
9.32163e-07
-1.02855e-06
9.60733e-07
-1.16888e-06
9.73572e-07
-1.30768e-06
9.71058e-07
-1.44303e-06
9.53765e-07
-1.57316e-06
9.22427e-07
-1.69639e-06
8.77906e-07
-1.81121e-06
8.21166e-07
-1.9162e-06
7.5325e-07
-2.01012e-06
6.75268e-07
-2.09187e-06
5.8838e-07
-2.16048e-06
4.9379e-07
-2.21516e-06
3.92741e-07
-2.25525e-06
2.86508e-07
-2.28026e-06
1.764e-07
6.3758e-08
-1.39949e-08
7.79777e-08
-5.32449e-08
2.33822e-07
-1.1506e-07
3.84902e-07
-1.96786e-07
5.27506e-07
-2.95798e-07
6.58706e-07
-4.09499e-07
7.76142e-07
-5.35325e-07
8.78003e-07
-6.70755e-07
9.62996e-07
-8.13322e-07
1.03029e-06
-9.60626e-07
1.07947e-06
-1.11035e-06
1.11046e-06
-1.26027e-06
1.1235e-06
-1.40829e-06
1.11907e-06
-1.5524e-06
1.09788e-06
-1.69075e-06
1.06078e-06
-1.82162e-06
1.00878e-06
-1.94343e-06
9.42976e-07
-2.05475e-06
8.64568e-07
-2.1543e-06
7.74812e-07
-2.24094e-06
6.75021e-07
-2.3137e-06
5.66551e-07
-2.37176e-06
4.50801e-07
-2.41445e-06
3.29202e-07
-2.44128e-06
2.03223e-07
7.43631e-08
-1.51799e-08
9.31577e-08
-5.77194e-08
2.76362e-07
-1.24632e-07
4.51814e-07
-2.12954e-07
6.15829e-07
-3.19758e-07
7.6551e-07
-4.42159e-07
8.98542e-07
-5.77325e-07
1.01317e-06
-7.22494e-07
1.10817e-06
-8.74986e-07
1.18278e-06
-1.03222e-06
1.2367e-06
-1.19171e-06
1.26995e-06
-1.35112e-06
1.28291e-06
-1.50823e-06
1.27618e-06
-1.66096e-06
1.25061e-06
-1.80739e-06
1.20721e-06
-1.94574e-06
1.14713e-06
-2.07439e-06
1.07163e-06
-2.19189e-06
9.82067e-07
-2.29693e-06
8.79853e-07
-2.38837e-06
7.66456e-07
-2.46521e-06
6.43392e-07
-2.52662e-06
5.12215e-07
-2.57193e-06
3.74512e-07
-2.60062e-06
2.31909e-07
8.60654e-08
-1.63659e-08
1.09524e-07
-6.2196e-08
3.22192e-07
-1.34207e-07
5.23824e-07
-2.29127e-07
7.10749e-07
-3.43725e-07
8.80107e-07
-4.7482e-07
1.02964e-06
-6.19312e-07
1.15766e-06
-7.74192e-07
1.26304e-06
-9.36561e-07
1.34515e-06
-1.10365e-06
1.40378e-06
-1.27282e-06
1.43913e-06
-1.4416e-06
1.45168e-06
-1.60766e-06
1.44224e-06
-1.76885e-06
1.4118e-06
-1.92318e-06
1.36153e-06
-2.06883e-06
1.29278e-06
-2.20415e-06
1.20695e-06
-2.32767e-06
1.10558e-06
-2.43806e-06
9.90244e-07
-2.53417e-06
8.6257e-07
-2.61501e-06
7.24233e-07
-2.67974e-06
5.76943e-07
-2.72767e-06
4.22444e-07
-2.75828e-06
2.62515e-07
9.89711e-08
-1.7563e-08
1.27087e-07
-6.67085e-08
3.71337e-07
-1.4385e-07
6.00966e-07
-2.45403e-07
8.12302e-07
-3.67822e-07
1.00253e-06
-5.07631e-07
1.16945e-06
-6.61449e-07
1.31148e-06
-8.26016e-07
1.42761e-06
-9.98211e-07
1.51735e-06
-1.17507e-06
1.58064e-06
-1.35381e-06
1.61786e-06
-1.53181e-06
1.62968e-06
-1.70665e-06
1.61708e-06
-1.87609e-06
1.58125e-06
-2.03811e-06
1.52355e-06
-2.19084e-06
1.44551e-06
-2.33261e-06
1.34873e-06
-2.46194e-06
1.23491e-06
-2.5775e-06
1.10581e-06
-2.67815e-06
9.63212e-07
-2.76288e-06
8.08964e-07
-2.83086e-06
6.44925e-07
-2.8814e-06
4.72991e-07
-2.91398e-06
2.9509e-07
1.13187e-07
-1.87805e-08
1.45867e-07
-7.12881e-08
4.23845e-07
-1.53621e-07
6.83298e-07
-2.61869e-07
9.20551e-07
-3.92165e-07
1.13282e-06
-5.40725e-07
1.31801e-06
-7.0388e-07
1.47463e-06
-8.7811e-07
1.60184e-06
-1.06007e-06
1.6993e-06
-1.24659e-06
1.76717e-06
-1.43474e-06
1.80601e-06
-1.62177e-06
1.81671e-06
-1.80516e-06
1.80047e-06
-1.98262e-06
1.7587e-06
-2.15205e-06
1.69298e-06
-2.31158e-06
1.60503e-06
-2.45952e-06
1.49667e-06
-2.5944e-06
1.36978e-06
-2.71489e-06
1.2263e-06
-2.81986e-06
1.06818e-06
-2.90833e-06
8.97433e-07
-2.97947e-06
7.16064e-07
-3.0326e-06
5.26119e-07
-3.06717e-06
3.29667e-07
1.28817e-07
-2.00267e-08
1.65894e-07
-7.59633e-08
4.79781e-07
-1.63574e-07
7.70909e-07
-2.78609e-07
1.03558e-06
-4.1686e-07
1.27107e-06
-5.74222e-07
1.47537e-06
-7.46727e-07
1.64714e-06
-9.30586e-07
1.7857e-06
-1.12222e-06
1.89093e-06
-1.31827e-06
1.96322e-06
-1.51563e-06
2.00337e-06
-1.71144e-06
2.01252e-06
-1.90309e-06
1.99212e-06
-2.08822e-06
1.94383e-06
-2.26471e-06
1.86947e-06
-2.43067e-06
1.771e-06
-2.58442e-06
1.65043e-06
-2.7245e-06
1.50986e-06
-2.84961e-06
1.35141e-06
-2.95864e-06
1.17722e-06
-3.05064e-06
9.89429e-07
-3.12479e-06
7.90216e-07
-3.18043e-06
5.81758e-07
-3.21702e-06
3.66259e-07
1.45956e-07
-2.13097e-08
1.87204e-07
-8.07615e-08
5.39233e-07
-1.73763e-07
8.63911e-07
-2.95699e-07
1.15752e-06
-4.42004e-07
1.41738e-06
-6.0823e-07
1.64159e-06
-7.90095e-07
1.829e-06
-9.83532e-07
1.97914e-06
-1.18472e-06
2.09212e-06
-1.3901e-06
2.1686e-06
-1.59641e-06
2.20967e-06
-1.80066e-06
2.21678e-06
-2.00018e-06
2.19164e-06
-2.19256e-06
2.13621e-06
-2.37565e-06
2.05257e-06
-2.54758e-06
1.94292e-06
-2.70667e-06
1.80953e-06
-2.85151e-06
1.6547e-06
-2.98083e-06
1.48073e-06
-3.09357e-06
1.28995e-06
-3.18881e-06
1.08466e-06
-3.26576e-06
8.67173e-07
-3.32379e-06
6.39791e-07
-3.36238e-06
4.04842e-07
1.64681e-07
-2.26373e-08
2.09841e-07
-8.57097e-08
6.02305e-07
-1.84239e-07
9.6244e-07
-3.13214e-07
1.2865e-06
-4.67687e-07
1.57185e-06
-6.42844e-07
1.81675e-06
-8.34072e-07
2.02023e-06
-1.03701e-06
2.18207e-06
-1.24758e-06
2.30269e-06
-1.46203e-06
2.38305e-06
-1.67693e-06
2.42458e-06
-1.88921e-06
2.42906e-06
-2.09611e-06
2.39854e-06
-2.29518e-06
2.33528e-06
-2.48429e-06
2.24168e-06
-2.66158e-06
2.1202e-06
-2.82542e-06
1.97338e-06
-2.97445e-06
1.80372e-06
-3.10746e-06
1.61374e-06
-3.22344e-06
1.40593e-06
-3.32153e-06
1.18276e-06
-3.401e-06
9.46647e-07
-3.46125e-06
7.00036e-07
-3.50176e-06
4.45352e-07
1.85048e-07
-2.40179e-08
2.33859e-07
-9.08358e-08
6.69123e-07
-1.95053e-07
1.06666e-06
-3.31231e-07
1.42267e-06
-4.94001e-07
1.73462e-06
-6.78157e-07
2.00091e-06
-8.78728e-07
2.2208e-06
-1.09104e-06
2.39438e-06
-1.31077e-06
2.52241e-06
-1.53394e-06
2.60623e-06
-1.757e-06
2.64764e-06
-1.97675e-06
2.64881e-06
-2.19039e-06
2.61218e-06
-2.39546e-06
2.54035e-06
-2.58985e-06
2.43607e-06
-2.77174e-06
2.30209e-06
-2.93959e-06
2.14122e-06
-3.09208e-06
1.95621e-06
-3.22811e-06
1.74977e-06
-3.34675e-06
1.52457e-06
-3.44721e-06
1.28321e-06
-3.52882e-06
1.02826e-06
-3.59102e-06
7.62236e-07
-3.63333e-06
4.87667e-07
2.07079e-07
-2.54605e-08
2.5932e-07
-9.61709e-08
7.39834e-07
-2.06265e-07
1.17675e-06
-3.49831e-07
1.56624e-06
-5.21041e-07
1.90583e-06
-7.14258e-07
2.19413e-06
-9.24129e-07
2.43067e-06
-1.14565e-06
2.6159e-06
-1.37422e-06
2.75098e-06
-1.60568e-06
2.83769e-06
-1.8363e-06
2.87827e-06
-2.06283e-06
2.87534e-06
-2.28242e-06
2.83176e-06
-2.49262e-06
2.75056e-06
-2.69137e-06
2.63482e-06
-2.87693e-06
2.48765e-06
-3.04785e-06
2.31214e-06
-3.20292e-06
2.11128e-06
-3.34114e-06
1.888e-06
-3.46169e-06
1.64512e-06
-3.56389e-06
1.38541e-06
-3.64714e-06
1.11151e-06
-3.71094e-06
8.26044e-07
-3.75488e-06
5.31598e-07
2.30755e-07
-2.69759e-08
2.86296e-07
-1.01751e-07
8.14609e-07
-2.17941e-07
1.29294e-06
-3.69106e-07
1.7174e-06
-5.4891e-07
2.08564e-06
-7.51243e-07
2.39646e-06
-9.70333e-07
2.64976e-06
-1.20082e-06
2.84639e-06
-1.43784e-06
2.988e-06
-1.677e-06
3.07685e-06
-1.91446e-06
3.11573e-06
-2.14689e-06
3.10777e-06
-2.37143e-06
3.0563e-06
-2.58569e-06
2.96481e-06
-2.78767e-06
2.8368e-06
-2.97575e-06
2.67573e-06
-3.1486e-06
2.48499e-06
-3.30515e-06
2.26783e-06
-3.44455e-06
2.0274e-06
-3.56611e-06
1.76668e-06
-3.66926e-06
1.48855e-06
-3.75353e-06
1.19577e-06
-3.81848e-06
8.91002e-07
-3.86376e-06
5.76877e-07
2.56003e-07
-2.8577e-08
3.14873e-07
-1.07619e-07
8.9365e-07
-2.30159e-07
1.41548e-06
-3.89165e-07
1.87641e-06
-5.77729e-07
2.2742e-06
-7.89218e-07
2.60795e-06
-1.0174e-06
2.87794e-06
-1.25654e-06
3.08553e-06
-1.50147e-06
3.23292e-06
-1.74761e-06
3.32299e-06
-1.99099e-06
3.35912e-06
-2.22824e-06
3.34501e-06
-2.45652e-06
3.28458e-06
-2.67352e-06
3.18181e-06
-2.87735e-06
3.04064e-06
-3.06655e-06
2.86493e-06
-3.23995e-06
2.65839e-06
-3.39667e-06
2.42455e-06
-3.53602e-06
2.16675e-06
-3.65748e-06
1.88814e-06
-3.76063e-06
1.59171e-06
-3.84513e-06
1.28027e-06
-3.91066e-06
9.56533e-07
-3.95692e-06
6.23138e-07
2.82684e-07
-3.028e-08
3.45153e-07
-1.13828e-07
9.77198e-07
-2.43017e-07
1.54467e-06
-4.10141e-07
2.04353e-06
-6.07647e-07
2.47171e-06
-8.28311e-07
2.82861e-06
-1.0654e-06
3.11503e-06
-1.31276e-06
3.3329e-06
-1.56493e-06
3.48509e-06
-1.81714e-06
3.57519e-06
-2.0653e-06
3.60728e-06
-2.30604e-06
3.58575e-06
-2.53657e-06
3.51512e-06
-2.75471e-06
3.39995e-06
-2.95875e-06
3.24467e-06
-3.14739e-06
3.05357e-06
-3.3197e-06
2.8307e-06
-3.475e-06
2.57985e-06
-3.61283e-06
2.30458e-06
-3.73287e-06
2.00818e-06
-3.83488e-06
1.69372e-06
-3.91866e-06
1.36405e-06
-3.98405e-06
1.02192e-06
-4.03082e-06
6.69907e-07
3.10583e-07
-3.21056e-08
3.77258e-07
-1.20447e-07
1.06554e-06
-2.56638e-07
1.68086e-06
-4.32202e-07
2.2191e-06
-6.38842e-07
2.67835e-06
-8.68676e-07
3.05845e-06
-1.1144e-06
3.36076e-06
-1.36944e-06
3.58794e-06
-1.628e-06
3.74365e-06
-1.88512e-06
3.83232e-06
-2.13667e-06
3.85883e-06
-2.37927e-06
3.82835e-06
-2.61027e-06
3.74612e-06
-2.82763e-06
3.61731e-06
-3.02988e-06
3.44692e-06
-3.21598e-06
3.23967e-06
-3.38525e-06
2.99996e-06
-3.53727e-06
2.73188e-06
-3.67185e-06
2.43916e-06
-3.78891e-06
2.12523e-06
-3.88841e-06
1.79322e-06
-3.97036e-06
1.44601e-06
-4.03472e-06
1.08628e-06
-4.0814e-06
7.16587e-07
3.39394e-07
-3.40803e-08
4.11339e-07
-1.27561e-07
1.15902e-06
-2.71179e-07
1.82448e-06
-4.55555e-07
2.40347e-06
-6.71543e-07
2.89434e-06
-9.10502e-07
3.2974e-06
-1.16451e-06
3.61476e-06
-1.4265e-06
3.84993e-06
-1.69038e-06
4.00753e-06
-1.95101e-06
4.09295e-06
-2.20422e-06
4.11204e-06
-2.44672e-06
4.07084e-06
-2.67602e-06
3.97542e-06
-2.89033e-06
3.83163e-06
-3.08846e-06
3.64505e-06
-3.26967e-06
3.42088e-06
-3.43361e-06
3.1639e-06
-3.58019e-06
2.87846e-06
-3.70951e-06
2.56848e-06
-3.82175e-06
2.23748e-06
-3.91717e-06
1.88863e-06
-3.99595e-06
1.52479e-06
-4.05826e-06
1.14858e-06
-4.10412e-06
7.62446e-07
3.68712e-07
-3.62387e-08
4.47577e-07
-1.35283e-07
1.25806e-06
-2.86837e-07
1.97603e-06
-4.80466e-07
2.5971e-06
-7.0603e-07
3.1199e-06
-9.54023e-07
3.5454e-06
-1.21582e-06
3.87656e-06
-1.48386e-06
4.11797e-06
-1.75171e-06
4.27538e-06
-2.01411e-06
4.35535e-06
-2.26689e-06
4.36482e-06
-2.50692e-06
4.31087e-06
-2.73195e-06
4.20045e-06
-2.94051e-06
4.04019e-06
-3.13177e-06
3.8363e-06
-3.30536e-06
3.59448e-06
-3.46133e-06
3.31987e-06
-3.59996e-06
3.01709e-06
-3.7217e-06
2.69021e-06
-3.82705e-06
2.34284e-06
-3.91655e-06
1.97813e-06
-3.99065e-06
1.59889e-06
-4.04968e-06
1.20762e-06
-4.09384e-06
8.06609e-07
3.98016e-07
-3.86254e-08
4.86203e-07
-1.43757e-07
1.3632e-06
-3.03869e-07
2.13614e-06
-5.07269e-07
2.8005e-06
-7.42656e-07
3.35529e-06
-9.99521e-07
3.80226e-06
-1.26846e-06
4.1455e-06
-1.54137e-06
4.39087e-06
-1.81151e-06
4.54553e-06
-2.07353e-06
4.61737e-06
-2.32335e-06
4.61464e-06
-2.55807e-06
4.54559e-06
-2.77578e-06
4.41817e-06
-2.97543e-06
4.23984e-06
-3.15662e-06
4.01749e-06
-3.31946e-06
3.75732e-06
-3.46443e-06
3.46485e-06
-3.59226e-06
3.14492e-06
-3.70379e-06
2.80174e-06
-3.7999e-06
2.43894e-06
-3.88142e-06
2.05965e-06
-3.94908e-06
1.66655e-06
-4.00345e-06
1.26199e-06
-4.04489e-06
8.48055e-07
4.2667e-07
-4.12993e-08
5.27502e-07
-1.5317e-07
1.47507e-06
-3.22598e-07
2.30557e-06
-5.36388e-07
3.01429e-06
-7.81851e-07
3.60075e-06
-1.04733e-06
4.06774e-06
-1.32254e-06
4.42071e-06
-1.59881e-06
4.66715e-06
-1.86914e-06
4.81586e-06
-2.12815e-06
4.87637e-06
-2.37194e-06
4.85844e-06
-2.59797e-06
4.77162e-06
-2.80478e-06
4.62498e-06
-2.99183e-06
4.42689e-06
-3.15927e-06
4.18493e-06
-3.30777e-06
3.90581e-06
-3.43832e-06
3.5954e-06
-3.55215e-06
3.25874e-06
-3.65053e-06
2.90013e-06
-3.73476e-06
2.52317e-06
-3.80601e-06
2.1309e-06
-3.8653e-06
1.72584e-06
-3.91345e-06
1.31013e-06
-3.95101e-06
8.85615e-07
4.53917e-07
-4.43373e-08
5.71839e-07
-1.63762e-07
1.59449e-06
-3.43442e-07
2.48525e-06
-5.68347e-07
3.2392e-06
-8.2414e-07
3.85654e-06
-1.09782e-06
4.34142e-06
-1.37814e-06
4.70104e-06
-1.65586e-06
4.94487e-06
-1.92375e-06
5.08374e-06
-2.17651e-06
5.12913e-06
-2.41058e-06
5.09251e-06
-2.62389e-06
4.98493e-06
-2.8156e-06
4.81668e-06
-2.98579e-06
4.59709e-06
-3.13529e-06
4.33443e-06
-3.26539e-06
4.03591e-06
-3.3777e-06
3.70771e-06
-3.47398e-06
3.35502e-06
-3.556e-06
2.98215e-06
-3.62547e-06
2.59264e-06
-3.68395e-06
2.18937e-06
-3.73275e-06
1.77465e-06
-3.77296e-06
1.35034e-06
-3.80534e-06
9.17989e-07
4.78882e-07
-4.7841e-08
6.1968e-07
-1.75848e-07
1.7225e-06
-3.66931e-07
2.67634e-06
-6.03804e-07
3.47607e-06
-8.70146e-07
4.12289e-06
-1.1514e-06
4.62267e-06
-1.43528e-06
4.98491e-06
-1.71195e-06
5.22155e-06
-1.9741e-06
5.34588e-06
-2.21665e-06
5.37168e-06
-2.43655e-06
5.31241e-06
-2.6324e-06
5.18078e-06
-2.80411e-06
4.98839e-06
-2.95259e-06
4.74556e-06
-3.07941e-06
4.46125e-06
-3.18661e-06
4.14312e-06
-3.27647e-06
3.79757e-06
-3.35134e-06
3.42989e-06
-3.41352e-06
3.04433e-06
-3.46516e-06
2.64428e-06
-3.50819e-06
2.2324e-06
-3.54426e-06
1.81072e-06
-3.5747e-06
1.38078e-06
-3.60048e-06
9.43766e-07
5.00585e-07
-5.19452e-08
6.71625e-07
-1.89838e-07
1.86039e-06
-3.93741e-07
2.88024e-06
-6.43564e-07
3.72589e-06
-9.2059e-07
4.39991e-06
-1.20847e-06
4.91055e-06
-1.49377e-06
5.27022e-06
-1.76621e-06
5.49398e-06
-2.01847e-06
5.59814e-06
-2.24596e-06
5.59917e-06
-2.44635e-06
5.51281e-06
-2.61916e-06
5.35359e-06
-2.76525e-06
5.13448e-06
-2.88648e-06
4.86679e-06
-2.98535e-06
4.56011e-06
-3.06471e-06
4.22248e-06
-3.12758e-06
3.86044e-06
-3.17693e-06
3.47924e-06
-3.2156e-06
3.083e-06
-3.24619e-06
2.67488e-06
-3.27101e-06
2.25722e-06
-3.29201e-06
1.83172e-06
-3.31077e-06
1.39954e-06
-3.32846e-06
9.61462e-07
5.17966e-07
-5.68307e-08
7.28456e-07
-2.0627e-07
2.00983e-06
-4.24732e-07
3.0987e-06
-6.88607e-07
3.98977e-06
-9.76274e-07
4.68758e-06
-1.26933e-06
5.2036e-06
-1.55318e-06
5.55407e-06
-1.81719e-06
5.75799e-06
-2.05435e-06
5.83531e-06
-2.26084e-06
5.80566e-06
-2.43537e-06
5.68734e-06
-2.57861e-06
5.49684e-06
-2.69265e-06
5.24852e-06
-2.78047e-06
4.95461e-06
-2.84561e-06
4.62525e-06
-2.89183e-06
4.2687e-06
-2.92291e-06
3.89151e-06
-2.94247e-06
3.4988e-06
-2.95387e-06
3.09441e-06
-2.96016e-06
2.68116e-06
-2.96398e-06
2.26104e-06
-2.96757e-06
1.83531e-06
-2.97274e-06
1.40471e-06
-2.98085e-06
9.69573e-07
5.29922e-07
-6.27425e-08
7.91198e-07
-2.25852e-07
2.17294e-06
-4.60999e-07
3.33385e-06
-7.40107e-07
4.26888e-06
-1.03804e-06
4.98551e-06
-1.33407e-06
5.49963e-06
-1.61252e-06
5.83252e-06
-1.86265e-06
6.00812e-06
-2.07816e-06
6.05082e-06
-2.25638e-06
5.98388e-06
-2.39748e-06
5.82844e-06
-2.50364e-06
5.60299e-06
-2.57838e-06
5.32326e-06
-2.62602e-06
5.00225e-06
-2.65122e-06
4.65046e-06
-2.65873e-06
4.2762e-06
-2.65309e-06
3.88588e-06
-2.63856e-06
3.48427e-06
-2.61901e-06
3.07485e-06
-2.59784e-06
2.65999e-06
-2.57799e-06
2.2412e-06
-2.56195e-06
1.81927e-06
-2.55171e-06
1.39447e-06
-2.54879e-06
9.66649e-07
5.35352e-07
-7.00185e-08
8.61217e-07
-2.49529e-07
2.35245e-06
-5.03927e-07
3.58825e-06
-7.99429e-07
4.56438e-06
-1.10664e-06
5.29272e-06
-1.40234e-06
5.79533e-06
-1.66993e-06
6.10011e-06
-1.89906e-06
6.23724e-06
-2.08465e-06
6.23642e-06
-2.22581e-06
6.12503e-06
-2.32458e-06
5.92722e-06
-2.38506e-06
5.66347e-06
-2.41248e-06
5.35068e-06
-2.41264e-06
5.00241e-06
-2.39144e-06
4.62926e-06
-2.35458e-06
4.23935e-06
-2.30738e-06
3.83867e-06
-2.25466e-06
3.43154e-06
-2.20068e-06
3.02087e-06
-2.14916e-06
2.60847e-06
-2.10327e-06
2.1953e-06
-2.06563e-06
1.78163e-06
-2.03837e-06
1.36721e-06
-2.02311e-06
9.51388e-07
5.33233e-07
-7.9133e-08
9.40349e-07
-2.78569e-07
2.55189e-06
-5.55267e-07
3.86495e-06
-8.68094e-07
4.87721e-06
-1.1826e-06
5.60722e-06
-1.47296e-06
6.08569e-06
-1.72216e-06
6.34931e-06
-1.92094e-06
6.43603e-06
-2.06629e-06
6.38177e-06
-2.15975e-06
6.21849e-06
-2.20588e-06
5.97335e-06
-2.21105e-06
5.66864e-06
-2.18248e-06
5.32211e-06
-2.12756e-06
4.94749e-06
-2.05345e-06
4.55515e-06
-1.96677e-06
4.15267e-06
-1.8735e-06
3.7454e-06
-1.7789e-06
3.33694e-06
-1.68753e-06
2.9295e-06
-1.60329e-06
2.52423e-06
-1.52944e-06
2.12145e-06
-1.46866e-06
1.72086e-06
-1.42311e-06
1.32167e-06
-1.39447e-06
9.22748e-07
5.22693e-07
-9.0769e-08
1.03112e-06
-3.14699e-07
2.77582e-06
-6.172e-07
4.16745e-06
-9.4766e-07
5.20767e-06
-1.26573e-06
5.9253e-06
-1.54326e-06
6.36323e-06
-1.76367e-06
6.56971e-06
-1.91994e-06
6.5923e-06
-2.01219e-06
6.47402e-06
-2.04532e-06
6.25161e-06
-2.02704e-06
5.95507e-06
-1.9664e-06
5.60801e-06
-1.87279e-06
5.2285e-06
-1.75524e-06
4.82994e-06
-1.62206e-06
4.42197e-06
-1.48067e-06
4.01128e-06
-1.33753e-06
3.60226e-06
-1.19817e-06
3.19758e-06
-1.06726e-06
2.79859e-06
-9.48685e-07
2.40566e-06
-8.45672e-07
2.01844e-06
-7.60835e-07
1.63602e-06
-6.96268e-07
1.2571e-06
-6.53598e-07
8.80078e-07
5.03118e-07
-1.05939e-07
1.13706e-06
-3.6029e-07
3.03017e-06
-6.92383e-07
4.49954e-06
-1.03942e-06
5.5547e-06
-1.35451e-06
6.24039e-06
-1.60802e-06
6.61673e-06
-1.78534e-06
6.74703e-06
-1.88336e-06
6.69032e-06
-1.90677e-06
6.49744e-06
-1.86488e-06
6.20972e-06
-1.76918e-06
5.85936e-06
-1.63173e-06
5.47056e-06
-1.46413e-06
5.0609e-06
-1.27694e-06
4.64275e-06
-1.07943e-06
4.22446e-06
-8.79528e-07
3.81138e-06
-6.83916e-07
3.40665e-06
-4.98118e-07
3.01178e-06
-3.2667e-07
2.62714e-06
-1.73262e-07
2.25225e-06
-4.08781e-08
1.88605e-06
6.80849e-08
1.52706e-06
1.5172e-07
1.17347e-06
2.08537e-07
8.23261e-07
4.7425e-07
-1.26192e-07
1.26325e-06
-4.18621e-07
3.3226e-06
-7.83876e-07
4.86479e-06
-1.14372e-06
5.91454e-06
-1.44475e-06
6.54142e-06
-1.65768e-06
6.82967e-06
-1.77245e-06
6.86179e-06
-1.79219e-06
6.71006e-06
-1.72793e-06
6.43317e-06
-1.59446e-06
6.07625e-06
-1.40761e-06
5.67252e-06
-1.18255e-06
5.2455e-06
-9.32893e-07
4.81125e-06
-6.70404e-07
4.38026e-06
-4.04906e-07
3.95896e-06
-1.44452e-07
3.55093e-06
1.04463e-07
3.15773e-06
3.36657e-07
2.77959e-06
5.48025e-07
2.41577e-06
7.35332e-07
2.06495e-06
8.96028e-07
1.72536e-06
1.0281e-06
1.39498e-06
1.12997e-06
1.0716e-06
1.20037e-06
7.52861e-07
4.36301e-07
-1.5398e-07
1.41723e-06
-4.94216e-07
3.66283e-06
-8.94775e-07
5.26535e-06
-1.25859e-06
6.27836e-06
-1.52721e-06
6.81004e-06
-1.67546e-06
6.97791e-06
-1.70166e-06
6.888e-06
-1.61829e-06
6.62669e-06
-1.44463e-06
6.25952e-06
-1.20194e-06
5.83356e-06
-9.1053e-07
5.38111e-06
-5.88394e-07
4.92336e-06
-2.50665e-07
4.47352e-06
9.03494e-08
4.03924e-06
4.24891e-07
3.62442e-06
7.45368e-07
3.23045e-06
1.04595e-06
2.85715e-06
1.32223e-06
2.50331e-06
1.57085e-06
2.16715e-06
1.78931e-06
1.84648e-06
1.97571e-06
1.53896e-06
2.12858e-06
1.24211e-06
2.24678e-06
9.534e-07
2.32939e-06
6.70251e-07
3.9005e-07
-1.93283e-07
1.61051e-06
-5.93143e-07
4.06269e-06
-1.02703e-06
5.69924e-06
-1.37678e-06
6.6281e-06
-1.58352e-06
7.01679e-06
-1.63268e-06
7.02707e-06
-1.53657e-06
6.79188e-06
-1.32057e-06
6.41069e-06
-1.01402e-06
5.95297e-06
-6.44963e-07
5.4645e-06
-2.37737e-07
4.97388e-06
1.87755e-07
4.49787e-06
6.15901e-07
4.04538e-06
1.03482e-06
3.62032e-06
1.43571e-06
3.22353e-06
1.81215e-06
2.85401e-06
2.15956e-06
2.50973e-06
2.47474e-06
2.18813e-06
2.75547e-06
1.88643e-06
3.00019e-06
1.60176e-06
3.20787e-06
1.33129e-06
3.37772e-06
1.07226e-06
3.50917e-06
8.21952e-07
3.6017e-06
5.77716e-07
3.36916e-07
-2.50662e-07
1.86117e-06
-7.22853e-07
4.53488e-06
-1.17834e-06
6.15473e-06
-1.4799e-06
6.92966e-06
-1.57881e-06
7.11569e-06
-1.48151e-06
6.92978e-06
-1.2214e-06
6.53177e-06
-8.40265e-07
6.02956e-06
-3.78171e-07
5.49088e-06
1.30901e-07
4.95543e-06
6.60176e-07
4.44461e-06
1.18958e-06
3.96846e-06
1.70465e-06
3.5303e-06
2.1953e-06
3.12967e-06
2.65473e-06
2.7641e-06
3.07853e-06
2.43021e-06
3.46399e-06
2.12428e-06
3.80951e-06
1.8426e-06
4.1143e-06
1.58163e-06
4.37802e-06
1.33804e-06
4.60058e-06
1.10873e-06
4.78201e-06
8.90826e-07
4.92235e-06
6.81609e-07
5.02157e-06
4.78501e-07
2.78998e-07
-3.36755e-07
2.19793e-06
-8.90183e-07
5.08831e-06
-1.3344e-06
6.59896e-06
-1.52683e-06
7.12209e-06
-1.44924e-06
7.0381e-06
-1.14396e-06
6.6245e-06
-6.72769e-07
6.06058e-06
-9.54151e-08
5.4522e-06
5.38926e-07
4.85653e-06
1.1933e-06
4.30105e-06
1.84163e-06
3.79628e-06
2.46642e-06
3.34367e-06
3.05651e-06
2.94021e-06
3.60524e-06
2.58095e-06
4.10897e-06
2.26037e-06
4.56607e-06
1.9731e-06
4.9762e-06
1.71415e-06
5.33974e-06
1.47906e-06
5.65749e-06
1.26389e-06
5.93041e-06
1.06513e-06
6.15944e-06
8.79698e-07
6.34545e-06
7.04817e-07
6.4891e-06
5.37959e-07
6.59083e-06
3.76776e-07
2.19033e-07
-4.67159e-07
2.66509e-06
-1.09304e-06
5.71419e-06
-1.45059e-06
6.95651e-06
-1.43132e-06
7.10282e-06
-1.08159e-06
6.68837e-06
-4.96488e-07
6.0394e-06
2.30164e-07
5.33393e-06
1.02403e-06
4.65834e-06
1.83273e-06
4.04783e-06
2.62222e-06
3.51156e-06
3.37193e-06
3.04656e-06
4.07052e-06
2.64509e-06
4.7126e-06
2.29813e-06
5.2965e-06
1.99705e-06
5.82272e-06
1.73415e-06
6.29299e-06
1.50284e-06
6.70957e-06
1.29757e-06
7.07493e-06
1.1137e-06
7.39147e-06
9.4734e-07
7.66141e-06
7.95194e-07
7.88666e-06
6.54449e-07
8.06881e-06
5.22663e-07
8.2091e-06
3.97667e-07
8.30839e-06
2.77491e-07
1.60292e-07
-6.56502e-07
3.32159e-06
-1.29241e-06
6.35009e-06
-1.41008e-06
7.07418e-06
-1.02131e-06
6.71406e-06
-2.82585e-07
5.94964e-06
6.48639e-07
5.10817e-06
1.65415e-06
4.32842e-06
2.65771e-06
3.65477e-06
3.6155e-06
3.09004e-06
4.50525e-06
2.62181e-06
5.31785e-06
2.23396e-06
6.05176e-06
1.91118e-06
6.70941e-06
1.64048e-06
7.29517e-06
1.41129e-06
7.81409e-06
1.21523e-06
8.27124e-06
1.04568e-06
8.67141e-06
8.97405e-07
9.01888e-06
7.66229e-07
9.31742e-06
6.48803e-07
9.57023e-06
5.42387e-07
9.77996e-06
4.44713e-07
9.94877e-06
3.53858e-07
1.00783e-05
2.68152e-07
1.01697e-05
1.86109e-07
1.06357e-07
-8.88029e-07
4.20962e-06
-1.33348e-06
6.79555e-06
-9.35246e-07
6.67595e-06
2.92238e-08
5.74959e-06
1.26088e-06
4.71799e-06
2.55953e-06
3.80953e-06
3.81276e-06
3.07519e-06
4.96768e-06
2.49985e-06
6.00589e-06
2.05183e-06
6.92676e-06
1.70095e-06
7.73771e-06
1.42301e-06
8.44914e-06
1.19975e-06
9.07187e-06
1.01775e-06
9.616e-06
8.67155e-07
1.00905e-05
7.40734e-07
1.05031e-05
6.33099e-07
1.08603e-05
5.40195e-07
1.11676e-05
4.58913e-07
1.14296e-05
3.86836e-07
1.16499e-05
3.22045e-07
1.18316e-05
2.62984e-07
1.19771e-05
2.08365e-07
1.20882e-05
1.57089e-07
1.21661e-05
1.08191e-07
6.07932e-08
-1.01533e-06
5.22495e-06
-7.47868e-07
6.52809e-06
5.83982e-07
5.3441e-06
2.29991e-06
4.03366e-06
4.01951e-06
2.99839e-06
5.58464e-06
2.24439e-06
6.94876e-06
1.71107e-06
8.11545e-06
1.33316e-06
9.10689e-06
1.06039e-06
9.94916e-06
8.58675e-07
1.06665e-05
7.05707e-07
1.12794e-05
5.86866e-07
1.18046e-05
4.92454e-07
1.22559e-05
4.1591e-07
1.26439e-05
3.52692e-07
1.29774e-05
2.99582e-07
1.32634e-05
2.54247e-07
1.35074e-05
2.14952e-07
1.37138e-05
1.80384e-07
1.38863e-05
1.49519e-07
1.40278e-05
1.21546e-07
1.41403e-05
9.58025e-08
1.42257e-05
7.17307e-08
1.4285e-05
4.88476e-08
2.67177e-08
-2.34975e-07
5.45992e-06
1.80398e-06
4.48913e-06
4.40146e-06
2.74662e-06
6.72176e-06
1.71336e-06
8.60683e-06
1.11332e-06
1.00972e-05
7.5398e-07
1.12737e-05