/*--------------------------------*- C++ -*----------------------------------*\
| =========                 |                                                 |
| \\      /  F ield         | OpenFOAM: The Open Source CFD Toolbox           |
|  \\    /   O peration     | Version:  v2012                                 |
|   \\  /    A nd           | Website:  www.openfoam.com                      |
|    \\/     M anipulation  |                                                 |
\*---------------------------------------------------------------------------*/
FoamFile
{
    version     2.0;
    format      ascii;
    class       volScalarField;
    location    "0.2";
    object      p;
}
// * * * * * * * * * * * * * * * * * * * * * * * * * * * * * * * * * * * * * //

dimensions      [0 2 -2 0 0 0 0];


internalField   nonuniform List<scalar> 
1250
(
0.0372101
0.0438218
0.0503157
0.056602
0.0625924
0.068201
0.0733458
0.0779507
0.0819464
0.0852725
0.0878795
0.0897302
0.0908025
0.091091
0.09061
0.0893958
0.0875102
0.0850442
0.0821226
0.07891
0.0756174
0.0725081
0.0699092
0.0682273
0.0677199
0.0369117
0.0428856
0.0487526
0.0544319
0.0598443
0.0649135
0.0695668
0.0737373
0.0773646
0.080397
0.0827928
0.0845225
0.0855699
0.0859348
0.0856346
0.0847068
0.0832111
0.0812321
0.0788821
0.0763041
0.0736733
0.0711968
0.0691137
0.067716
0.0672128
0.0366734
0.0421718
0.0475722
0.0528009
0.0577855
0.0624564
0.0667479
0.0705994
0.0739569
0.0767744
0.0790154
0.0806548
0.0816799
0.0820925
0.0819107
0.0811699
0.0799254
0.0782532
0.0762517
0.0740428
0.0717708
0.0696015
0.067719
0.0663153
0.0655345
0.0364699
0.0416085
0.046657
0.0515468
0.0562107
0.0605842
0.0646063
0.0682211
0.0713786
0.0740366
0.0761618
0.0777312
0.0787334
0.0791704
0.0790584
0.0784294
0.0773321
0.0758328
0.0740159
0.0719833
0.069853
0.0677603
0.0658501
0.0642166
0.0629211
0.0362713
0.0411126
0.0458711
0.0504824
0.0548838
0.0590146
0.0628177
0.0662404
0.0692359
0.0717644
0.0737944
0.0753039
0.0762816
0.0767281
0.0766568
0.0760951
0.0750843
0.0736808
0.0719549
0.0699898
0.06788
0.0657357
0.0636702
0.06168
0.0597385
0.0360693
0.040674
0.0452027
0.0495944
0.0537898
0.057731
0.0613639
0.064638
0.0675085
0.069937
0.0718926
0.0733532
0.0743065
0.0747509
0.0746962
0.0741643
0.0731891
0.0718169
0.0701053
0.0681207
0.0659372
0.0636452
0.0613335
0.0589081
0.0562629
0.0358548
0.0402834
0.0446422
0.048873
0.0529185
0.0567234
0.0602349
0.0634042
0.0661873
0.0685461
0.0704495
0.0718743
0.0728063
0.0732409
0.0731837
0.0726509
0.071669
0.0702751
0.068515
0.0664408
0.0641099
0.0615977
0.0589756
0.056069
0.052704
0.0356162
0.0399261
0.044172
0.0482975
0.052247
0.0559663
0.0594037
0.0625107
0.0652433
0.067563
0.0694374
0.0708417
0.0717589
0.0721809
0.0721087
0.0715527
0.0705325
0.0690764
0.0672202
0.0650042
0.0624719
0.0596885
0.0567136
0.053302
0.0492216
0.0353408
0.0395871
0.0437749
0.0478489
0.0517543
0.0554375
0.0588468
0.0619335
0.0646528
0.0669649
0.0688356
0.0702373
0.0711501
0.0715618
0.0714686
0.0708752
0.0697946
0.0682474
0.0662607
0.0638648
0.0610928
0.0580032
0.0546482
0.0507204
0.0459374
0.0350152
0.0392516
0.0434347
0.0475098
0.0514223
0.0551184
0.0585458
0.0616548
0.0643991
0.0667369
0.0686314
0.0700521
0.0709751
0.0713841
0.0712703
0.0706328
0.0694782
0.0678205
0.0656793
0.063077
0.0600386
0.0566186
0.0528658
0.0484168
0.0429448
0.034625
0.0389041
0.0431354
0.0472638
0.0512345
0.0549927
0.058485
0.06166
0.0644694
0.0668685
0.0688176
0.0702824
0.0712349
0.0716542
0.0715263
0.0708448
0.0696106
0.0678314
0.0655206
0.0626942
0.0593712
0.0556044
0.051442
0.0464691
0.0403181
0.0341541
0.0385286
0.0428607
0.0470948
0.0511752
0.0550456
0.058651
0.0619376
0.0648544
0.0673534
0.0693913
0.0709295
0.0719356
0.0723835
0.0722542
0.0715356
0.0702231
0.0683187
0.0658307
0.0627696
0.0591501
0.0550253
0.0504444
0.0449443
0.0381186
0.0335855
0.038108
0.0425939
0.0469869
0.0512294
0.0552636
0.059032
0.0624782
0.0655475
0.0681885
0.0703534
0.071999
0.0730877
0.0735883
0.0734761
0.0727335
0.0713505
0.0693239
0.0666572
0.0633567
0.0594336
0.0549428
0.049936
0.0439033
0.0364008
0.0329005
0.0376242
0.0423179
0.0469238
0.0513825
0.0556339
0.0596177
0.0632741
0.0665446
0.0693735
0.0717079
0.0734997
0.0747057
0.0752886
0.0752182
0.0744711
0.0730316
0.0708917
0.0680504
0.0645105
0.0602805
0.0554179
0.0499779
0.0434043
0.0352156
0.0320791
0.0370582
0.0420147
0.0468891
0.0516199
0.0561442
0.0603985
0.0643191
0.0678433
0.0709103
0.0734619
0.075444
0.0768074
0.0775086
0.0775108
0.0767848
0.075309
0.0730704
0.0700639
0.0662887
0.0617512
0.0565123
0.0506315
0.0435052
0.0346139
0.0310997
0.0363895
0.0416653
0.0468656
0.0519265
0.0567822
0.0613653
0.0656079
0.0694425
0.0728027
0.0756244
0.0778469
0.0794141
0.0802757
0.0803881
0.0797153
0.0782296
0.0759127
0.0727551
0.0687526
0.0639099
0.0582912
0.0519609
0.0442668
0.0346497
0.0299396
0.0355966
0.0412498
0.0468356
0.0522872
0.0575355
0.0625093
0.0671359
0.0713424
0.0750562
0.0782066
0.0807257
0.08255
0.0836212
0.0838882
0.0833075
0.0818449
0.079476
0.0761867
0.0719689
0.0668255
0.0608244
0.0540352
0.0457546
0.0353819
0.0285748
0.0346572
0.0407477
0.0467804
0.052686
0.0583916
0.0638217
0.0688987
0.0735436
0.0776772
0.0812215
0.0841004
0.0862421
0.0875797
0.0880533
0.0876114
0.0862118
0.0838236
0.0804271
0.0760104
0.0705736
0.0641887
0.0569303
0.0480409
0.0368764
0.0269807
0.033548
0.0401375
0.0466811
0.0531065
0.0593373
0.0652935
0.070892
0.0760473
0.0806733
0.0846834
0.0879929
0.0905204
0.0921894
0.0929302
0.0926817
0.0913929
0.0890252
0.0855525
0.0809578
0.0752381
0.0684692
0.0607307
0.0512074
0.0392087
0.0251326
0.0322457
0.0393976
0.046518
0.053532
0.0603594
0.0669155
0.0731115
0.0788553
0.0840526
0.088608
0.092427
0.0954177
0.0974923
0.0985701
0.098579
0.0974577
0.0951584
0.0916472
0.0869009
0.0809127
0.0737615
0.0655318
0.0553463
0.0424651
0.0230062
0.0307272
0.0385064
0.0462717
0.0539456
0.0614443
0.0686783
0.0755531
0.0819693
0.087824
0.0930122
0.0974286
0.100969
0.103534
0.105029
0.10537
0.104483
0.102309
0.0988054
0.0939407
0.0877029
0.0801736
0.0714419
0.0605634
0.0467453
0.0205789
0.0289707
0.0374432
0.0459231
0.0543305
0.0625783
0.0705725
0.0782124
0.0853911
0.0919969
0.0979141
0.103025
0.107213
0.110364
0.112369
0.113128
0.112553
0.110573
0.107133
0.102191
0.0957279
0.0878283
0.0785846
0.0669798
0.0521644
0.0178304
0.0269563
0.036189
0.0454545
0.0546711
0.0637486
0.0725889
0.0810852
0.089123
0.0965811
0.103332
0.109246
0.114191
0.118036
0.120656
0.121933
0.121763
0.120058
0.116747
0.111778
0.105123
0.0968654
0.0871012
0.0747346
0.0588551
0.0147447
0.0246679
0.0347277
0.0448503
0.054953
0.0649432
0.0747189
0.0841677
0.0931674
0.101587
0.109287
0.116123
0.121946
0.126608
0.129963
0.131875
0.132217
0.130882
0.127782
0.122849
0.116042
0.107445
0.0971542
0.0839882
0.0669711
0.0113116
0.0220941
0.0330473
0.0440984
0.0551645
0.0661519
0.0769551
0.0874567
0.097527
0.107025
0.115798
0.123687
0.130524
0.136141
0.140371
0.14305
0.14403
0.14318
0.140388
0.135568
0.128662
0.11975
0.10893
0.0949257
0.0766899
0.00752833
0.0192303
0.0311413
0.0431909
0.0552974
0.0673669
0.0792917
0.0909499
0.102205
0.112905
0.122887
0.131972
0.139975
0.146703
0.151962
0.155565
0.157331
0.157099
0.154734
0.15012
0.143182
0.133992
0.122645
0.107761
0.088217
0.00340174
0.0160803
0.0290107
0.0421263
0.0553484
0.0685841
0.0817251
0.0946462
0.107205
0.11924
0.130574
0.141012
0.150347
0.158361
0.16483
0.169534
0.172259
0.172807
0.17101
0.16672
0.159834
0.150413
0.138549
0.122743
0.101791
-0.00104941
0.0126584
0.0266653
0.0409104
0.0553198
0.0698036
0.0842547
0.0985462
0.112531
0.126039
0.13888
0.150841
0.161693
0.171188
0.179072
0.185084
0.188969
0.19049
0.189432
0.185609
0.178883
0.169296
0.156932
0.14016
0.117689
-0.00579239
0.00899135
0.0241257
0.039558
0.0552211
0.0710308
0.0868832
0.102652
0.118187
0.133312
0.147823
0.161492
0.174063
0.185259
0.194788
0.202347
0.207632
0.210353
0.210243
0.207065
0.200635
0.190969
0.178133
0.160352
0.136234
-0.0107786
0.00511995
0.0214248
0.0380939
0.0550699
0.0722769
0.0896169
0.106967
0.124178
0.141066
0.15742
0.172993
0.187505
0.200647
0.212085
0.221467
0.228431
0.232626
0.233719
0.231407
0.225446
0.215814
0.202552
0.183716
0.157808
-0.0159416
0.00110064
0.0186087
0.0365542
0.0548924
0.073559
0.0924657
0.111497
0.130504
0.149306
0.167681
0.185368
0.202062
0.217422
0.231068
0.242591
0.251566
0.257563
0.260169
0.258998
0.253728
0.244283
0.230661
0.210727
0.182858
-0.0211966
-0.00299387
0.0157376
0.0349861
0.0547233
0.0749001
0.0954418
0.116244
0.137167
0.15803
0.178609
0.19863
0.217768
0.235647
0.251838
0.265872
0.277246
0.28544
0.289942
0.290259
0.285965
0.276906
0.263024
0.241948
0.211921
-0.0264402
-0.0070748
0.012885
0.0334477
0.054605
0.0763274
0.0985586
0.12121
0.144156
0.167224
0.190192
0.212778
0.23464
0.255368
0.274487
0.291458
0.30569
0.31656
0.323429
0.325671
0.322722
0.314321
0.300318
0.278064
0.24564
-0.0315513
-0.0110387
0.0101361
0.0320055
0.0545853
0.0778701
0.101827
0.126391
0.151455
0.176862
0.2024
0.227788
0.25267
0.27661
0.299085
0.319484
0.337119
0.351241
0.361064
0.365786
0.364666
0.357288
0.343369
0.31991
0.2848
-0.0363948
-0.0147707
0.00758485
0.0307317
0.054714
0.0795556
0.105253
0.131771
0.159028
0.186895
0.215176
0.243602
0.271816
0.29936
0.325668
0.35006
0.371741
0.389818
0.403323
0.411239
0.412586
0.40673
0.393191
0.368521
0.330369
-0.0408258
-0.0181492
0.0053286
0.0296985
0.0550375
0.0814033
0.108829
0.137314
0.166817
0.197241
0.228424
0.260119
0.291982
0.323549
0.354221
0.383251
0.409735
0.432619
0.45072
0.46275
0.467413
0.463772
0.45105
0.425203
0.383563
-0.0446968
-0.0210532
0.00346115
0.0289716
0.0555915
0.0834181
0.112526
0.142961
0.174727
0.207777
0.241994
0.277174
0.313002
0.349029
0.384643
0.419042
0.451219
0.479946
0.50379
0.521127
0.53025
0.529795
0.518542
0.491628
0.44594
-0.0478668
-0.0233712
0.00206377
0.0286003
0.0563922
0.0855803
0.116288
0.148614
0.182621
0.218324
0.25567
0.294519
0.334613
0.375545
0.416718
0.457304
0.496208
0.532029
0.563056
0.587258
0.602395
0.606507
0.597714
0.569982
0.51954
-0.0502127
-0.025012
0.00119458
0.0286084
0.0574258
0.087836
0.120016
0.154127
0.1903
0.228629
0.269145
0.311799
0.356422
0.402688
0.45006
0.497728
0.544545
0.588963
0.628976
0.662079
0.685357
0.696028
0.691224
0.663191
0.607109
-0.0516416
-0.0259171
0.000876976
0.0289818
0.0586381
0.0900856
0.123561
0.159293
0.197494
0.238352
0.282005
0.328525
0.377873
0.429855
0.484054
0.539748
0.59581
0.650599
0.701839
0.746505
0.780849
0.800981
0.802569
0.775262
0.712475
-0.0521035
-0.0260724
0.00108824
0.0296585
0.0599233
0.0921744
0.12671
0.163834
0.203848
0.247049
0.293708
0.344048
0.398208
0.456189
0.517777
0.582439
0.649183
0.716388
0.7816
0.84128
0.890718
0.924578
0.936397
0.911827
0.841182
-0.0516039
-0.0255192
0.00174984
0.0305196
0.0611173
0.0938852
0.129184
0.167394
0.208916
0.254166
0.303569
0.357534
0.416429
0.480524
0.549913
0.624388
0.703268
0.785154
0.867608
0.946718
1.01677
1.07065
1.0989
1.081
1.00165
-0.0502125
-0.0243618
0.00272138
0.031385
0.0619939
0.094937
0.130634
0.169542
0.21216
0.259035
0.310758
0.367957
0.431277
0.501339
0.578664
0.66355
0.755871
0.854769
0.9582
1.06223
1.16036
1.24354
1.2983
1.29474
1.20734
-0.0480681
-0.0227701
0.00379983
0.0320143
0.0622685
0.0949905
0.130652
0.169779
0.212967
0.260891
0.314315
0.374105
0.441226
0.516723
0.601676
0.697094
0.803725
0.921719
1.05005
1.18552
1.32153
1.44746
1.54509
1.57102
1.48125
-0.0453759
-0.0209761
0.00472414
0.0321127
0.061605
0.0936569
0.12878
0.167557
0.210664
0.258892
0.313172
0.374608
0.4445
0.524373
0.615974
0.721236
0.842151
0.98048
1.13715
1.31103
1.49708
1.68467
1.8515
1.93683
1.86471
-0.0423969
-0.0192592
0.00519443
0.0313552
0.0596455
0.0905343
0.124555
0.162328
0.204584
0.252205
0.306258
0.368055
0.439215
0.521741
0.618106
0.731326
0.864985
1.02314
1.20989
1.42826
1.67793
1.95232
2.22901
2.43088
2.43192
-0.0394317
-0.0179099
0.00492813
0.0294639
0.0561119
0.0853363
0.117671
0.153745
0.194314
0.240302
0.292864
0.353454
0.423936
0.506722
0.60496
0.722779
0.865579
1.04032
1.25569
1.52172
1.84814
2.23976
2.6837
3.10336
3.31483
-0.0367991
-0.0172267
0.00364568
0.0261759
0.0507545
0.0778212
0.107885
0.141552
0.179556
0.222813
0.272479
0.330049
0.39749
0.477439
0.573496
0.690667
0.836004
1.01953
1.25553
1.5643
1.9728
2.50868
3.19009
4.01476
4.80842
-0.0347592
-0.0176764
0.000667924
0.0205892
0.0424323
0.0665853
0.0934989
0.123709
0.157871
0.196801
0.24154
0.293448
0.354339
0.426694
0.514001
0.621305
0.756127
0.930008
1.16132
1.48062
1.93679
2.59636
3.5721
5.19439
7.67839
-0.0334143
-0.0195192
-0.0044252
0.0121199
0.0303905
0.0506938
0.0733835
0.0988776
0.127682
0.16042
0.197884
0.241096
0.291407
0.35066
0.421439
0.507519
0.614679
0.75229
0.936881
1.20041
1.60434
2.26055
3.4718
6.358
12.4032
)
;

boundaryField
{
    movingWall
    {
        type            zeroGradient;
    }
    fixedWalls
    {
        type            zeroGradient;
    }
    frontAndBack
    {
        type            empty;
    }
    procBoundary1to0
    {
        type            processor;
        value           nonuniform List<scalar> 
50
(
0.0305708
0.0309119
0.0311513
0.0313101
0.0314118
0.0314495
0.0314145
0.0312981
0.0310904
0.0307794
0.0303514
0.0297911
0.0290811
0.0282025
0.0271346
0.0258547
0.0243391
0.0225626
0.0204993
0.0181234
0.0154096
0.0123347
0.00887819
0.00502446
0.000764168
-0.00390353
-0.00896878
-0.0144087
-0.0201849
-0.0262413
-0.0325024
-0.0388719
-0.0452323
-0.0514461
-0.0573585
-0.0628019
-0.067603
-0.0715915
-0.0746123
-0.0765378
-0.0772822
-0.0768142
-0.0751688
-0.0724533
-0.0688463
-0.0645911
-0.0599991
-0.0554104
-0.0508795
-0.0463502
)
;
    }
}


// ************************************************************************* //
