/*--------------------------------*- C++ -*----------------------------------*\
| =========                 |                                                 |
| \\      /  F ield         | OpenFOAM: The Open Source CFD Toolbox           |
|  \\    /   O peration     | Version:  v2012                                 |
|   \\  /    A nd           | Website:  www.openfoam.com                      |
|    \\/     M anipulation  |                                                 |
\*---------------------------------------------------------------------------*/
FoamFile
{
    version     2.0;
    format      ascii;
    class       volVectorField;
    location    "0.2";
    object      U;
}
// * * * * * * * * * * * * * * * * * * * * * * * * * * * * * * * * * * * * * //

dimensions      [0 1 -1 0 0 0 0];


internalField   nonuniform List<vector> 
1250
(
(-0.00704961 -8.0822e-06 0)
(-0.0069914 -2.69067e-05 0)
(-0.00687206 -4.54765e-05 0)
(-0.00669294 -6.35274e-05 0)
(-0.00645626 -8.07872e-05 0)
(-0.00616514 -9.69783e-05 0)
(-0.0058236 -0.000111816 0)
(-0.00543659 -0.000125013 0)
(-0.00500997 -0.00013628 0)
(-0.00455049 -0.000145331 0)
(-0.00406578 -0.000151888 0)
(-0.00356429 -0.000155683 0)
(-0.00305523 -0.00015646 0)
(-0.00254851 -0.000153985 0)
(-0.00205462 -0.000148044 0)
(-0.00158454 -0.000138455 0)
(-0.00114951 -0.000125068 0)
(-0.000760883 -0.000107791 0)
(-0.000429777 -8.66208e-05 0)
(-0.000166588 -6.17389e-05 0)
(1.98289e-05 -3.37337e-05 0)
(0.00012354 -4.08544e-06 0)
(0.000144726 2.3756e-05 0)
(9.97129e-05 4.17272e-05 0)
(3.20943e-05 3.20266e-05 0)
(-0.0198855 -5.40695e-05 0)
(-0.019725 -0.000174569 0)
(-0.0193982 -0.000293235 0)
(-0.0189089 -0.000408363 0)
(-0.0182635 -0.000518208 0)
(-0.0174707 -0.000620999 0)
(-0.0165415 -0.000714948 0)
(-0.0154895 -0.000798268 0)
(-0.0143307 -0.000869191 0)
(-0.0130835 -0.000925998 0)
(-0.0117685 -0.000967044 0)
(-0.0104082 -0.000990791 0)
(-0.00902734 -0.000995844 0)
(-0.007652 -0.000980996 0)
(-0.00630964 -0.000945278 0)
(-0.00502856 -0.000888025 0)
(-0.0038373 -0.000808983 0)
(-0.00276389 -0.00070846 0)
(-0.00183483 -0.000587606 0)
(-0.00107351 -0.000448922 0)
(-0.00049799 -0.000297243 0)
(-0.000117658 -0.000141579 0)
(7.23074e-05 1.58976e-06 0)
(0.000102815 0.000101722 0)
(4.21111e-05 9.97237e-05 0)
(-0.0316925 -0.000153432 0)
(-0.0314416 -0.000488592 0)
(-0.0309332 -0.000818406 0)
(-0.0301733 -0.00113812 0)
(-0.0291718 -0.0014429 0)
(-0.0279421 -0.00172784 0)
(-0.0265016 -0.00198802 0)
(-0.0248713 -0.00221858 0)
(-0.0230759 -0.00241471 0)
(-0.0211435 -0.0025718 0)
(-0.0191055 -0.00268549 0)
(-0.0169966 -0.00275175 0)
(-0.014854 -0.00276703 0)
(-0.0127171 -0.00272841 0)
(-0.010627 -0.0026337 0)
(-0.00862572 -0.00248175 0)
(-0.0067551 -0.00227269 0)
(-0.0050557 -0.00200844 0)
(-0.00356505 -0.00169342 0)
(-0.00231554 -0.00133577 0)
(-0.00133136 -0.000949374 0)
(-0.000624438 -0.000557229 0)
(-0.00018872 -0.000196563 0)
(7.03886e-06 7.2652e-05 0)
(2.53271e-05 0.000146327 0)
(-0.0426586 -0.000295552 0)
(-0.042328 -0.000933557 0)
(-0.0416595 -0.00156113 0)
(-0.0406614 -0.00216925 0)
(-0.0393465 -0.00274874 0)
(-0.0377325 -0.00329035 0)
(-0.035842 -0.00378484 0)
(-0.0337022 -0.00422306 0)
(-0.0313453 -0.00459609 0)
(-0.0288076 -0.00489538 0)
(-0.0261297 -0.00511291 0)
(-0.0233561 -0.00524139 0)
(-0.0205344 -0.00527452 0)
(-0.017715 -0.00520725 0)
(-0.01495 -0.00503608 0)
(-0.0122923 -0.00475959 0)
(-0.0097945 -0.00437892 0)
(-0.00750682 -0.0038987 0)
(-0.00547559 -0.00332823 0)
(-0.00374052 -0.00268332 0)
(-0.00233167 -0.00198922 0)
(-0.00126521 -0.00128504 0)
(-0.000538404 -0.000629635 0)
(-0.00012972 -0.000110827 0)
(-6.02278e-07 0.000130088 0)
(-0.0529377 -0.000474021 0)
(-0.0525366 -0.00148946 0)
(-0.0517263 -0.00248808 0)
(-0.0505168 -0.00345557 0)
(-0.0489234 -0.00437745 0)
(-0.0469675 -0.00523913 0)
(-0.044676 -0.00602609 0)
(-0.0420816 -0.006724 0)
(-0.0392223 -0.00731893 0)
(-0.0361417 -0.00779762 0)
(-0.0328878 -0.00814771 0)
(-0.0295133 -0.00835809 0)
(-0.0260746 -0.00841927 0)
(-0.022631 -0.00832385 0)
(-0.0192437 -0.00806704 0)
(-0.0159748 -0.00764736 0)
(-0.0128856 -0.0070675 0)
(-0.0100346 -0.00633554 0)
(-0.00747578 -0.00546655 0)
(-0.00525605 -0.00448498 0)
(-0.00341212 -0.00342806 0)
(-0.0019667 -0.0023506 0)
(-0.000924372 -0.001331 0)
(-0.00027982 -0.000479958 0)
(-2.81667e-05 3.53484e-05 0)
(-0.0626623 -0.000684583 0)
(-0.0621989 -0.00214494 0)
(-0.0612622 -0.003581 0)
(-0.0598633 -0.00497232 0)
(-0.0580198 -0.00629825 0)
(-0.0557561 -0.00753806 0)
(-0.0531026 -0.00867112 0)
(-0.0500965 -0.00967715 0)
(-0.0467811 -0.0105365 0)
(-0.0432054 -0.0112305 0)
(-0.039424 -0.0117419 0)
(-0.0354964 -0.0120553 0)
(-0.0314864 -0.0121576 0)
(-0.0274608 -0.0120389 0)
(-0.0234887 -0.011693 0)
(-0.0196398 -0.0111185 0)
(-0.0159833 -0.01032 0)
(-0.0125854 -0.00930915 0)
(-0.00950759 -0.00810729 0)
(-0.00680418 -0.00674755 0)
(-0.00451993 -0.00527864 0)
(-0.00268634 -0.00376966 0)
(-0.00131823 -0.00231547 0)
(-0.000430213 -0.00104422 0)
(-5.45597e-05 -0.000139211 0)
(-0.0719454 -0.000922729 0)
(-0.0714272 -0.00288945 0)
(-0.0703771 -0.00482352 0)
(-0.0688071 -0.00669767 0)
(-0.0667367 -0.00848439 0)
(-0.0641924 -0.0101561 0)
(-0.0612079 -0.0116853 0)
(-0.0578238 -0.0130452 0)
(-0.0540876 -0.0142098 0)
(-0.0500532 -0.0151544 0)
(-0.0457807 -0.0158564 0)
(-0.0413352 -0.0162954 0)
(-0.0367869 -0.0164547 0)
(-0.0322091 -0.0163214 0)
(-0.0276779 -0.0158879 0)
(-0.0232703 -0.0151526 0)
(-0.0190625 -0.0141218 0)
(-0.0151283 -0.0128112 0)
(-0.0115371 -0.0112477 0)
(-0.00835145 -0.00947278 0)
(-0.00562552 -0.00754557 0)
(-0.00340129 -0.00554739 0)
(-0.00170589 -0.00358637 0)
(-0.000575356 -0.00180334 0)
(-7.89385e-05 -0.000390662 0)
(-0.0808822 -0.00118373 0)
(-0.0803163 -0.00371325 0)
(-0.0791641 -0.00620114 0)
(-0.0774384 -0.00861273 0)
(-0.07516 -0.010913 0)
(-0.0723572 -0.013067 0)
(-0.0690661 -0.01504 0)
(-0.0653302 -0.0167977 0)
(-0.0612006 -0.0183074 0)
(-0.056735 -0.0195378 0)
(-0.0519982 -0.0204603 0)
(-0.0470603 -0.0210495 0)
(-0.041997 -0.0212842 0)
(-0.0368877 -0.0211483 0)
(-0.0318147 -0.0206323 0)
(-0.0268619 -0.0197344 0)
(-0.0221128 -0.0184623 0)
(-0.017649 -0.0168348 0)
(-0.013548 -0.0148844 0)
(-0.00988184 -0.0126596 0)
(-0.00671506 -0.0102286 0)
(-0.00410155 -0.0076829 0)
(-0.00208186 -0.00514101 0)
(-0.000713646 -0.00275269 0)
(-0.000101293 -0.000714925 0)
(-0.0895521 -0.00146273 0)
(-0.0889453 -0.00460759 0)
(-0.0877011 -0.00770147 0)
(-0.0858329 -0.0107018 0)
(-0.0833623 -0.0135657 0)
(-0.0803191 -0.0162502 0)
(-0.0767411 -0.0187126 0)
(-0.0726741 -0.0209111 0)
(-0.068172 -0.0228053 0)
(-0.0632961 -0.0243572 0)
(-0.0581147 -0.0255315 0)
(-0.0527028 -0.026297 0)
(-0.0471406 -0.0266278 0)
(-0.0415135 -0.0265042 0)
(-0.0359097 -0.0259141 0)
(-0.03042 -0.0248549 0)
(-0.0251352 -0.0233351 0)
(-0.0201452 -0.0213762 0)
(-0.0155364 -0.019015 0)
(-0.0113909 -0.0163063 0)
(-0.00778487 -0.0133256 0)
(-0.00478487 -0.0101728 0)
(-0.00244546 -0.00697426 0)
(-0.000845432 -0.00388626 0)
(-0.000121937 -0.00110798 0)
(-0.0980197 -0.00175457 0)
(-0.0973787 -0.0055643 0)
(-0.0960519 -0.00931354 0)
(-0.0940529 -0.0129515 0)
(-0.091404 -0.0164269 0)
(-0.0881356 -0.0196885 0)
(-0.0842869 -0.0226851 0)
(-0.0799056 -0.025367 0)
(-0.0750477 -0.0276856 0)
(-0.0697773 -0.0295953 0)
(-0.0641661 -0.031054 0)
(-0.0582931 -0.0320239 0)
(-0.0522432 -0.0324738 0)
(-0.0461069 -0.0323796 0)
(-0.0399788 -0.0317261 0)
(-0.0339563 -0.0305093 0)
(-0.0281381 -0.0287374 0)
(-0.0226227 -0.0264339 0)
(-0.0175062 -0.0236387 0)
(-0.0128817 -0.0204117 0)
(-0.00883744 -0.0168344 0)
(-0.00545352 -0.0130131 0)
(-0.00279863 -0.00908081 0)
(-0.000971968 -0.00519838 0)
(-0.000141284 -0.00156643 0)
(-0.106336 -0.00205377 0)
(-0.105668 -0.00657542 0)
(-0.104267 -0.0110272 0)
(-0.102149 -0.0153497 0)
(-0.0993337 -0.0194832 0)
(-0.0958536 -0.0233674 0)
(-0.0917483 -0.0269427 0)
(-0.0870669 -0.0301504 0)
(-0.0818669 -0.0329338 0)
(-0.0762147 -0.035239 0)
(-0.0701852 -0.037016 0)
(-0.0638605 -0.0382203 0)
(-0.0573303 -0.0388144 0)
(-0.0506902 -0.0387689 0)
(-0.0440409 -0.038065 0)
(-0.0374869 -0.0366959 0)
(-0.0311349 -0.034669 0)
(-0.0250926 -0.0320083 0)
(-0.0194667 -0.0287561 0)
(-0.0143617 -0.0249758 0)
(-0.009879 -0.0207535 0)
(-0.00611228 -0.0162011 0)
(-0.00314462 -0.0114565 0)
(-0.00109489 -0.0066847 0)
(-0.000159753 -0.0020878 0)
(-0.114539 -0.00235438 0)
(-0.113851 -0.00763294 0)
(-0.112386 -0.0128326 0)
(-0.110158 -0.0178852 0)
(-0.107189 -0.022722 0)
(-0.10351 -0.0272739 0)
(-0.0991613 -0.031472 0)
(-0.0941925 -0.0352486 0)
(-0.0886625 -0.0385379 0)
(-0.0826397 -0.0412773 0)
(-0.076201 -0.0434084 0)
(-0.0694323 -0.0448791 0)
(-0.0624271 -0.0456444 0)
(-0.0552863 -0.0456693 0)
(-0.0481166 -0.0449298 0)
(-0.04103 -0.0434155 0)
(-0.0341418 -0.0411319 0)
(-0.0275693 -0.0381022 0)
(-0.0214303 -0.0343697 0)
(-0.0158415 -0.0300003 0)
(-0.0109178 -0.0250837 0)
(-0.00676726 -0.0197359 0)
(-0.00348727 -0.0140993 0)
(-0.00121595 -0.00834265 0)
(-0.000177737 -0.00267055 0)
(-0.122654 -0.00265 0)
(-0.121953 -0.00872853 0)
(-0.120434 -0.0147197 0)
(-0.118108 -0.0205465 0)
(-0.114997 -0.0261312 0)
(-0.111132 -0.0313952 0)
(-0.106552 -0.0362604 0)
(-0.101309 -0.0406493 0)
(-0.0954608 -0.0444868 0)
(-0.0890777 -0.0477007 0)
(-0.0822387 -0.0502236 0)
(-0.0750325 -0.0519945 0)
(-0.0675567 -0.0529607 0)
(-0.059917 -0.0530797 0)
(-0.0522267 -0.0523215 0)
(-0.0446052 -0.0506709 0)
(-0.0371766 -0.04813 0)
(-0.0300686 -0.04472 0)
(-0.0234107 -0.0404842 0)
(-0.0173325 -0.0354892 0)
(-0.0119631 -0.0298277 0)
(-0.00742513 -0.0236188 0)
(-0.00383066 -0.0170092 0)
(-0.0013369 -0.0101716 0)
(-0.000195595 -0.00331412 0)
(-0.130694 -0.00293366 0)
(-0.129989 -0.00985332 0)
(-0.128425 -0.016678 0)
(-0.126012 -0.023322 0)
(-0.122772 -0.029698 0)
(-0.118735 -0.0357183 0)
(-0.113939 -0.0412948 0)
(-0.108434 -0.0463403 0)
(-0.10228 -0.0507693 0)
(-0.0955483 -0.0544996 0)
(-0.0883182 -0.0574538 0)
(-0.0806816 -0.0595613 0)
(-0.0727395 -0.0607602 0)
(-0.0646028 -0.0609995 0)
(-0.056391 -0.0602419 0)
(-0.0482313 -0.0584659 0)
(-0.040257 -0.0556687 0)
(-0.0326069 -0.0518683 0)
(-0.0254223 -0.0471061 0)
(-0.0188469 -0.041449 0)
(-0.0130244 -0.034991 0)
(-0.00809269 -0.0278543 0)
(-0.00417883 -0.0201891 0)
(-0.00145941 -0.012173 0)
(-0.000213654 -0.00401886 0)
(-0.138658 -0.00319789 0)
(-0.137958 -0.0109977 0)
(-0.13636 -0.0186962 0)
(-0.133874 -0.0261986 0)
(-0.13052 -0.0334087 0)
(-0.126325 -0.0402288 0)
(-0.121328 -0.0465611 0)
(-0.115577 -0.0523077 0)
(-0.109132 -0.0573728 0)
(-0.102064 -0.0616631 0)
(-0.0944538 -0.0650905 0)
(-0.0863951 -0.0675734 0)
(-0.0779924 -0.0690396 0)
(-0.0693613 -0.0694284 0)
(-0.0606276 -0.0686933 0)
(-0.0519262 -0.0668052 0)
(-0.0434005 -0.0637546 0)
(-0.0352001 -0.0595549 0)
(-0.0274796 -0.0542443 0)
(-0.0203969 -0.0478885 0)
(-0.0141112 -0.0405819 0)
(-0.00877664 -0.0324492 0)
(-0.00453571 -0.0236444 0)
(-0.00158508 -0.0143502 0)
(-0.000232211 -0.00478596 0)
(-0.146533 -0.0034347 0)
(-0.145847 -0.0121514 0)
(-0.144228 -0.0207617 0)
(-0.141683 -0.0291622 0)
(-0.13823 -0.0372474 0)
(-0.133895 -0.0449103 0)
(-0.128715 -0.0520425 0)
(-0.122737 -0.0585356 0)
(-0.116018 -0.0642825 0)
(-0.10863 -0.0691783 0)
(-0.100653 -0.0731229 0)
(-0.0921833 -0.0760229 0)
(-0.0833279 -0.0777942 0)
(-0.0742067 -0.0783647 0)
(-0.0649517 -0.0776773 0)
(-0.055706 -0.0756934 0)
(-0.0466227 -0.0723951 0)
(-0.0378634 -0.0677893 0)
(-0.0295962 -0.0619096 0)
(-0.021994 -0.0548189 0)
(-0.0152328 -0.0466113 0)
(-0.00948343 -0.0374133 0)
(-0.00490506 -0.0273829 0)
(-0.0017154 -0.0167084 0)
(-0.000251539 -0.00561742 0)
(-0.154291 -0.00363564 0)
(-0.15363 -0.0133028 0)
(-0.152003 -0.0228603 0)
(-0.149416 -0.0321963 0)
(-0.145883 -0.0411963 0)
(-0.141429 -0.0497436 0)
(-0.136087 -0.0577196 0)
(-0.129902 -0.0650048 0)
(-0.122931 -0.0714802 0)
(-0.115242 -0.0770286 0)
(-0.106916 -0.081537 0)
(-0.09805 -0.0848988 0)
(-0.0887529 -0.0870164 0)
(-0.0791488 -0.0878048 0)
(-0.0693756 -0.0871943 0)
(-0.0595842 -0.0851345 0)
(-0.0499379 -0.0815976 0)
(-0.0406106 -0.0765818 0)
(-0.0317848 -0.0701141 0)
(-0.0236494 -0.0622535 0)
(-0.0163978 -0.0530927 0)
(-0.0102192 -0.0427592 0)
(-0.00529046 -0.0314149 0)
(-0.0018518 -0.0192549 0)
(-0.000271894 -0.00651602 0)
(-0.161891 -0.00379192 0)
(-0.161265 -0.0144396 0)
(-0.159645 -0.0249763 0)
(-0.157033 -0.0352823 0)
(-0.153442 -0.0452343 0)
(-0.148892 -0.0547061 0)
(-0.143415 -0.0635688 0)
(-0.13705 -0.0716916 0)
(-0.129852 -0.0789432 0)
(-0.121887 -0.0851933 0)
(-0.113235 -0.0903147 0)
(-0.103992 -0.0941863 0)
(-0.0942686 -0.0966955 0)
(-0.0841926 -0.0977423 0)
(-0.0739071 -0.0972423 0)
(-0.063571 -0.0951314 0)
(-0.0533578 -0.0913691 0)
(-0.043454 -0.0859428 0)
(-0.0340571 -0.0788713 0)
(-0.0253732 -0.0702077 0)
(-0.0176146 -0.0600417 0)
(-0.0109899 -0.0485016 0)
(-0.00569534 -0.0357531 0)
(-0.00199564 -0.0219983 0)
(-0.00029352 -0.00748523 0)
(-0.169272 -0.00389454 0)
(-0.168694 -0.0155484 0)
(-0.167097 -0.0270923 0)
(-0.164482 -0.0383989 0)
(-0.160857 -0.0493369 0)
(-0.15624 -0.059771 0)
(-0.150656 -0.069562 0)
(-0.144143 -0.0785675 0)
(-0.13675 -0.0866435 0)
(-0.12854 -0.0936458 0)
(-0.119591 -0.0994321 0)
(-0.109997 -0.103865 0)
(-0.0998687 -0.106816 0)
(-0.0893371 -0.108167 0)
(-0.0785499 -0.107816 0)
(-0.0676735 -0.105684 0)
(-0.0568916 -0.101715 0)
(-0.0464039 -0.0958828 0)
(-0.0364236 -0.0881954 0)
(-0.0271751 -0.078698 0)
(-0.018891 -0.0674763 0)
(-0.0118012 -0.0546579 0)
(-0.00612303 -0.0404123 0)
(-0.00214824 -0.0249492 0)
(-0.000316656 -0.00852923 0)
(-0.176361 -0.00393451 0)
(-0.175842 -0.0166147 0)
(-0.174286 -0.0291884 0)
(-0.171691 -0.0415218 0)
(-0.168061 -0.053476 0)
(-0.163409 -0.0649069 0)
(-0.157755 -0.0756653 0)
(-0.151132 -0.0855975 0)
(-0.143583 -0.0945463 0)
(-0.135166 -0.102353 0)
(-0.125956 -0.108859 0)
(-0.116043 -0.113909 0)
(-0.105539 -0.117355 0)
(-0.0945747 -0.119061 0)
(-0.0833019 -0.118906 0)
(-0.0718942 -0.11679 0)
(-0.0605453 -0.112639 0)
(-0.0494684 -0.106411 0)
(-0.0388933 -0.0981006 0)
(-0.0290637 -0.0877425 0)
(-0.0202343 -0.0754161 0)
(-0.0126584 -0.0612475 0)
(-0.00657676 -0.0454095 0)
(-0.00231092 -0.0281198 0)
(-0.000341538 -0.00965286 0)
(-0.183062 -0.00390309 0)
(-0.182615 -0.0176231 0)
(-0.181119 -0.031243 0)
(-0.178571 -0.0446235 0)
(-0.174968 -0.0576188 0)
(-0.170319 -0.0700768 0)
(-0.164637 -0.0818388 0)
(-0.157949 -0.0927398 0)
(-0.150291 -0.102609 0)
(-0.141714 -0.111273 0)
(-0.132288 -0.118555 0)
(-0.1221 -0.124282 0)
(-0.111257 -0.128285 0)
(-0.0998902 -0.130404 0)
(-0.0881553 -0.130497 0)
(-0.0762313 -0.128441 0)
(-0.0643219 -0.124141 0)
(-0.0526537 -0.117535 0)
(-0.0414738 -0.108601 0)
(-0.0310469 -0.0973594 0)
(-0.0216516 -0.0838821 0)
(-0.0135669 -0.0682918 0)
(-0.00705979 -0.0507636 0)
(-0.002485 -0.0315237 0)
(-0.000368414 -0.0108617 0)
(-0.189263 -0.00379212 0)
(-0.188899 -0.0185575 0)
(-0.187485 -0.0332324 0)
(-0.185011 -0.0476729 0)
(-0.181473 -0.0617277 0)
(-0.176869 -0.0752377 0)
(-0.171209 -0.0880351 0)
(-0.164509 -0.099944 0)
(-0.156798 -0.110781 0)
(-0.148119 -0.120355 0)
(-0.138533 -0.128473 0)
(-0.128121 -0.134941 0)
(-0.116987 -0.139565 0)
(-0.10526 -0.142163 0)
(-0.093095 -0.142566 0)
(-0.0806776 -0.140624 0)
(-0.0682203 -0.136217 0)
(-0.0559631 -0.12926 0)
(-0.0441713 -0.119708 0)
(-0.0331319 -0.107567 0)
(-0.0231496 -0.0928967 0)
(-0.0145319 -0.075814 0)
(-0.00757541 -0.0564956 0)
(-0.00267186 -0.0351762 0)
(-0.000397543 -0.0121619 0)
(-0.194828 -0.0035944 0)
(-0.194559 -0.0194014 0)
(-0.193248 -0.0351308 0)
(-0.190881 -0.0506355 0)
(-0.187448 -0.0657603 0)
(-0.18294 -0.08034 0)
(-0.177358 -0.094199 0)
(-0.170709 -0.107151 0)
(-0.163011 -0.118999 0)
(-0.154297 -0.129538 0)
(-0.14462 -0.138553 0)
(-0.13405 -0.145828 0)
(-0.122685 -0.151146 0)
(-0.110649 -0.154297 0)
(-0.0980982 -0.15508 0)
(-0.0852199 -0.153317 0)
(-0.0722351 -0.148857 0)
(-0.0593973 -0.141585 0)
(-0.0469903 -0.131433 0)
(-0.0353252 -0.118384 0)
(-0.024735 -0.102483 0)
(-0.015559 -0.0838388 0)
(-0.00812711 -0.0626284 0)
(-0.00287299 -0.0390944 0)
(-0.000429211 -0.0135604 0)
(-0.1996 -0.00330413 0)
(-0.199436 -0.0201379 0)
(-0.198251 -0.0369103 0)
(-0.196025 -0.0534732 0)
(-0.192742 -0.0696686 0)
(-0.188386 -0.0853271 0)
(-0.182947 -0.100267 0)
(-0.17642 -0.114291 0)
(-0.168813 -0.127192 0)
(-0.160147 -0.138746 0)
(-0.150459 -0.148721 0)
(-0.139811 -0.156876 0)
(-0.12829 -0.162966 0)
(-0.116013 -0.16675 0)
(-0.103133 -0.167995 0)
(-0.0898379 -0.166488 0)
(-0.0763561 -0.162041 0)
(-0.0629537 -0.154505 0)
(-0.0499337 -0.143781 0)
(-0.0376324 -0.129826 0)
(-0.0264142 -0.112664 0)
(-0.0166538 -0.0923926 0)
(-0.00871862 -0.0691869 0)
(-0.00309 -0.0432969 0)
(-0.000463739 -0.0150651 0)
(-0.203395 -0.00291743 0)
(-0.203347 -0.0207503 0)
(-0.20231 -0.0385416 0)
(-0.200263 -0.0561442 0)
(-0.19718 -0.0733993 0)
(-0.193037 -0.0901352 0)
(-0.187814 -0.106165 0)
(-0.181493 -0.121284 0)
(-0.174068 -0.135272 0)
(-0.165543 -0.147891 0)
(-0.155943 -0.158889 0)
(-0.145313 -0.167998 0)
(-0.133727 -0.174945 0)
(-0.121293 -0.179454 0)
(-0.108156 -0.181255 0)
(-0.0945031 -0.180094 0)
(-0.0805674 -0.175742 0)
(-0.0666264 -0.168008 0)
(-0.0530025 -0.156755 0)
(-0.0400589 -0.141907 0)
(-0.0281941 -0.123462 0)
(-0.0178224 -0.101503 0)
(-0.00935411 -0.0761981 0)
(-0.00332474 -0.0478045 0)
(-0.000501496 -0.0166846 0)
(-0.206006 -0.00243287 0)
(-0.20608 -0.0212226 0)
(-0.205216 -0.0399942 0)
(-0.203385 -0.0586035 0)
(-0.200557 -0.0768936 0)
(-0.196697 -0.0946926 0)
(-0.191771 -0.11181 0)
(-0.18575 -0.128037 0)
(-0.178609 -0.143141 0)
(-0.170337 -0.15687 0)
(-0.160939 -0.168951 0)
(-0.150441 -0.179091 0)
(-0.138902 -0.186986 0)
(-0.126414 -0.192322 0)
(-0.113111 -0.194786 0)
(-0.0991776 -0.194077 0)
(-0.0848462 -0.189918 0)
(-0.0704052 -0.182071 0)
(-0.0561957 -0.17035 0)
(-0.0426092 -0.154638 0)
(-0.0300816 -0.134901 0)
(-0.0190716 -0.111199 0)
(-0.0100383 -0.0836912 0)
(-0.00357936 -0.0526399 0)
(-0.000542924 -0.0184286 0)
(-0.207196 -0.0018521 0)
(-0.207399 -0.02154 0)
(-0.206729 -0.0412365 0)
(-0.205156 -0.0608032 0)
(-0.202639 -0.0800877 0)
(-0.199136 -0.0989204 0)
(-0.1946 -0.117111 0)
(-0.188983 -0.134446 0)
(-0.182244 -0.150685 0)
(-0.174352 -0.165562 0)
(-0.165288 -0.178784 0)
(-0.155058 -0.190034 0)
(-0.143699 -0.198972 0)
(-0.131283 -0.205245 0)
(-0.11793 -0.208492 0)
(-0.103812 -0.20836 0)
(-0.089162 -0.204515 0)
(-0.0742749 -0.19666 0)
(-0.0595097 -0.184553 0)
(-0.0452874 -0.168026 0)
(-0.0320844 -0.147001 0)
(-0.0204092 -0.12151 0)
(-0.0107769 -0.0916979 0)
(-0.00385644 -0.0578286 0)
(-0.000588555 -0.020308 0)
(-0.206703 -0.00118037 0)
(-0.207036 -0.0216896 0)
(-0.206582 -0.0422371 0)
(-0.205307 -0.0626931 0)
(-0.203164 -0.0829129 0)
(-0.200098 -0.102732 0)
(-0.196049 -0.121963 0)
(-0.190953 -0.140392 0)
(-0.184748 -0.157772 0)
(-0.177379 -0.173827 0)
(-0.168803 -0.188244 0)
(-0.159 -0.20068 0)
(-0.147978 -0.210762 0)
(-0.135786 -0.218091 0)
(-0.122522 -0.222257 0)
(-0.108343 -0.222845 0)
(-0.093474 -0.219456 0)
(-0.0782141 -0.211725 0)
(-0.0629382 -0.199339 0)
(-0.0480971 -0.182069 0)
(-0.0342111 -0.159781 0)
(-0.0218443 -0.132468 0)
(-0.0115765 -0.100253 0)
(-0.0041591 -0.0633988 0)
(-0.000639049 -0.0223353 0)
(-0.204233 -0.000427141 0)
(-0.204694 -0.0216606 0)
(-0.204477 -0.0429647 0)
(-0.203541 -0.0642214 0)
(-0.201834 -0.0852967 0)
(-0.19929 -0.106035 0)
(-0.195834 -0.126256 0)
(-0.191386 -0.145746 0)
(-0.18586 -0.164258 0)
(-0.179175 -0.181506 0)
(-0.171262 -0.197163 0)
(-0.162067 -0.210859 0)
(-0.151568 -0.222186 0)
(-0.139782 -0.230701 0)
(-0.126777 -0.235935 0)
(-0.112689 -0.237408 0)
(-0.0977295 -0.234645 0)
(-0.0821941 -0.227197 0)
(-0.0664712 -0.214672 0)
(-0.0510411 -0.196758 0)
(-0.0364711 -0.173256 0)
(-0.023388 -0.144104 0)
(-0.0124454 -0.109393 0)
(-0.00449128 -0.0693825 0)
(-0.000695243 -0.0245246 0)
(-0.199465 0.00039345 0)
(-0.200049 -0.0214459 0)
(-0.200084 -0.0433901 0)
(-0.199528 -0.0653361 0)
(-0.19832 -0.087164 0)
(-0.196385 -0.108731 0)
(-0.193635 -0.129867 0)
(-0.18997 -0.150366 0)
(-0.185281 -0.169982 0)
(-0.179461 -0.188423 0)
(-0.172406 -0.205351 0)
(-0.164028 -0.220373 0)
(-0.154267 -0.233047 0)
(-0.143099 -0.242882 0)
(-0.13056 -0.249349 0)
(-0.11675 -0.251893 0)
(-0.10186 -0.249953 0)
(-0.086176 -0.242984 0)
(-0.0700938 -0.230495 0)
(-0.0541214 -0.212075 0)
(-0.0388759 -0.187437 0)
(-0.0250536 -0.156449 0)
(-0.0133941 -0.119161 0)
(-0.00485796 -0.0758162 0)
(-0.000758209 -0.0268926 0)
(-0.192048 0.00126227 0)
(-0.192744 -0.021042 0)
(-0.193044 -0.0434862 0)
(-0.192904 -0.0659857 0)
(-0.192258 -0.0884386 0)
(-0.191022 -0.110719 0)
(-0.189094 -0.132671 0)
(-0.186354 -0.1541 0)
(-0.182672 -0.174766 0)
(-0.17791 -0.194381 0)
(-0.17193 -0.212595 0)
(-0.164604 -0.228997 0)
(-0.155827 -0.243113 0)
(-0.14553 -0.254407 0)
(-0.1337 -0.262284 0)
(-0.120397 -0.266108 0)
(-0.105777 -0.26522 0)
(-0.090108 -0.258965 0)
(-0.0737844 -0.246729 0)
(-0.0573385 -0.227983 0)
(-0.0414384 -0.202327 0)
(-0.0268578 -0.169538 0)
(-0.0144358 -0.129602 0)
(-0.00526558 -0.082742 0)
(-0.000829352 -0.0294588 0)
(-0.181603 0.00215509 0)
(-0.182396 -0.0204498 0)
(-0.182969 -0.0432299 0)
(-0.183279 -0.0661219 0)
(-0.183254 -0.0890454 0)
(-0.182804 -0.111895 0)
(-0.181813 -0.134535 0)
(-0.180146 -0.156787 0)
(-0.177649 -0.178424 0)
(-0.174153 -0.199164 0)
(-0.169484 -0.218656 0)
(-0.163471 -0.236475 0)
(-0.155957 -0.25212 0)
(-0.146819 -0.265008 0)
(-0.135987 -0.274481 0)
(-0.123467 -0.279816 0)
(-0.109367 -0.280243 0)
(-0.0939204 -0.274979 0)
(-0.0775119 -0.263267 0)
(-0.0606902 -0.244429 0)
(-0.0441739 -0.217922 0)
(-0.0288215 -0.183401 0)
(-0.0155874 -0.140769 0)
(-0.00572257 -0.0902093 0)
(-0.000910538 -0.0322465 0)
(-0.167726 0.00304273 0)
(-0.168595 -0.0196756 0)
(-0.169445 -0.0426031 0)
(-0.170231 -0.0657007 0)
(-0.170882 -0.0889128 0)
(-0.1713 -0.112159 0)
(-0.17136 -0.135328 0)
(-0.170912 -0.158263 0)
(-0.16978 -0.180758 0)
(-0.167767 -0.202544 0)
(-0.164662 -0.223275 0)
(-0.160245 -0.242523 0)
(-0.154305 -0.259763 0)
(-0.146657 -0.274375 0)
(-0.137161 -0.285634 0)
(-0.125754 -0.292728 0)
(-0.112478 -0.294767 0)
(-0.0975191 -0.29082 0)
(-0.0812315 -0.279962 0)
(-0.0641697 -0.26133 0)
(-0.0470996 -0.234201 0)
(-0.0309709 -0.19807 0)
(-0.0168711 -0.15272 0)
(-0.00624014 -0.098277 0)
(-0.00100429 -0.0352842 0)
(-0.149992 0.00389169 0)
(-0.150913 -0.0187309 0)
(-0.152035 -0.0415939 0)
(-0.153317 -0.0646851 0)
(-0.154688 -0.0879763 0)
(-0.156047 -0.111416 0)
(-0.157264 -0.134921 0)
(-0.158175 -0.158365 0)
(-0.158587 -0.181567 0)
(-0.158277 -0.204281 0)
(-0.156996 -0.226176 0)
(-0.154478 -0.246829 0)
(-0.150454 -0.265705 0)
(-0.144667 -0.28215 0)
(-0.136896 -0.295382 0)
(-0.126993 -0.304497 0)
(-0.114916 -0.308476 0)
(-0.100776 -0.306226 0)
(-0.0848772 -0.296619 0)
(-0.0677623 -0.27857 0)
(-0.0502343 -0.251126 0)
(-0.0333387 -0.213571 0)
(-0.0183159 -0.165523 0)
(-0.00683337 -0.107016 0)
(-0.00111409 -0.0386074 0)
(-0.127957 0.00466522 0)
(-0.1289 -0.0176326 0)
(-0.130285 -0.0401983 0)
(-0.132073 -0.0630475 0)
(-0.134196 -0.086182 0)
(-0.136557 -0.109582 0)
(-0.13902 -0.133198 0)
(-0.141418 -0.156938 0)
(-0.143542 -0.180654 0)
(-0.145148 -0.204133 0)
(-0.145955 -0.227071 0)
(-0.145651 -0.249061 0)
(-0.143907 -0.269572 0)
(-0.140389 -0.28793 0)
(-0.134786 -0.303305 0)
(-0.126846 -0.314705 0)
(-0.116418 -0.320982 0)
(-0.103512 -0.320859 0)
(-0.088352 -0.312978 0)
(-0.0714389 -0.295983 0)
(-0.0535968 -0.268631 0)
(-0.0359659 -0.229926 0)
(-0.0199601 -0.179254 0)
(-0.00752293 -0.116514 0)
(-0.00124482 -0.0422608 0)
(-0.101168 0.00532493 0)
(-0.102101 -0.0164032 0)
(-0.10373 -0.0384209 0)
(-0.106023 -0.0607726 0)
(-0.108917 -0.0834913 0)
(-0.112319 -0.106591 0)
(-0.116098 -0.130059 0)
(-0.120086 -0.153841 0)
(-0.124069 -0.177835 0)
(-0.127787 -0.201865 0)
(-0.130934 -0.225669 0)
(-0.133159 -0.248872 0)
(-0.134074 -0.270963 0)
(-0.133265 -0.291266 0)
(-0.130324 -0.308921 0)
(-0.124876 -0.32286 0)
(-0.116638 -0.331807 0)
(-0.105482 -0.334291 0)
(-0.0915105 -0.328694 0)
(-0.0751461 -0.313336 0)
(-0.0572021 -0.286608 0)
(-0.0389027 -0.24714 0)
(-0.021855 -0.194001 0)
(-0.00833749 -0.12688 0)
(-0.00140352 -0.0463019 0)
(-0.0691672 0.00583309 0)
(-0.0700596 -0.0150693 0)
(-0.0719084 -0.0362763 0)
(-0.07469 -0.0578602 0)
(-0.0783523 -0.0798849 0)
(-0.0828114 -0.102399 0)
(-0.0879469 -0.125429 0)
(-0.0935963 -0.148965 0)
(-0.0995497 -0.172951 0)
(-0.105544 -0.197264 0)
(-0.111257 -0.221694 0)
(-0.116307 -0.245916 0)
(-0.120256 -0.26946 0)
(-0.122616 -0.291673 0)
(-0.122872 -0.311688 0)
(-0.120517 -0.328384 0)
(-0.115106 -0.34037 0)
(-0.106335 -0.345982 0)
(-0.0941335 -0.343313 0)
(-0.0787883 -0.330302 0)
(-0.0610531 -0.304884 0)
(-0.0422091 -0.265199 0)
(-0.0240687 -0.209864 0)
(-0.00931767 -0.13825 0)
(-0.0016006 -0.0508069 0)
(-0.0315088 0.00615547 0)
(-0.0323286 -0.0136613 0)
(-0.034366 -0.0337896 0)
(-0.0376069 -0.0543277 0)
(-0.0420121 -0.0753686 0)
(-0.0475127 -0.0969949 0)
(-0.0540048 -0.119272 0)
(-0.0613424 -0.142236 0)
(-0.0693298 -0.165884 0)
(-0.0777126 -0.190154 0)
(-0.086169 -0.2149 0)
(-0.0943023 -0.239866 0)
(-0.101637 -0.264647 0)
(-0.10762 -0.288642 0)
(-0.111636 -0.311011 0)
(-0.113036 -0.330616 0)
(-0.111191 -0.34598 0)
(-0.105576 -0.355255 0)
(-0.0958878 -0.356236 0)
(-0.0821985 -0.346426 0)
(-0.0651257 -0.323196 0)
(-0.0459525 -0.284044 0)
(-0.0266926 -0.226952 0)
(-0.010522 -0.1508 0)
(-0.00185198 -0.0558782 0)
(0.012234 0.00626476 0)
(0.0115136 -0.0122111 0)
(0.00932488 -0.030997 0)
(0.00567051 -0.0502128 0)
(0.00057418 -0.0699776 0)
(-0.00591512 -0.0904048 0)
(-0.013717 -0.111597 0)
(-0.0227116 -0.133637 0)
(-0.0327301 -0.156577 0)
(-0.0435428 -0.18042 0)
(-0.0548461 -0.205099 0)
(-0.0662493 -0.230441 0)
(-0.0772621 -0.256133 0)
(-0.0872877 -0.281663 0)
(-0.0956241 -0.306259 0)
(-0.101483 -0.328815 0)
(-0.104037 -0.347816 0)
(-0.102501 -0.361271 0)
(-0.0962645 -0.366681 0)
(-0.0850881 -0.361071 0)
(-0.0693382 -0.341137 0)
(-0.0501997 -0.303541 0)
(-0.0298479 -0.245372 0)
(-0.012037 -0.164756 0)
(-0.00218296 -0.0616579 0)
(0.0624505 0.00614427 0)
(0.0618496 -0.0107509 0)
(0.059551 -0.0279453 0)
(0.0555457 -0.0455756 0)
(0.0498395 -0.0637814 0)
(0.0424571 -0.0827019 0)
(0.0334488 -0.102473 0)
(0.0228988 -0.12322 0)
(0.010936 -0.14505 0)
(-0.00225192 -0.168033 0)
(-0.0164017 -0.192188 0)
(-0.031155 -0.217442 0)
(-0.046038 -0.243598 0)
(-0.0604416 -0.270267 0)
(-0.0736081 -0.296799 0)
(-0.084632 -0.322184 0)
(-0.0924878 -0.344941 0)
(-0.0961011 -0.363005 0)
(-0.0944849 -0.37363 0)
(-0.0869647 -0.373352 0)
(-0.073495 -0.358085 0)
(-0.0549945 -0.323427 0)
(-0.0336926 -0.265216 0)
(-0.0139923 -0.18041 0)
(-0.00263531 -0.0683485 0)
(0.119476 0.00579171 0)
(0.119004 -0.00931024 0)
(0.116641 -0.0246917 0)
(0.112364 -0.0404998 0)
(0.10616 -0.0568874 0)
(0.098027 -0.0740124 0)
(0.0879799 -0.0920366 0)
(0.0760586 -0.111122 0)
(0.0623397 -0.131423 0)
(0.0469515 -0.153078 0)
(0.0300933 -0.176189 0)
(0.0120599 -0.200797 0)
(-0.00672991 -0.226835 0)
(-0.0257004 -0.254078 0)
(-0.0440872 -0.282049 0)
(-0.0609135 -0.30991 0)
(-0.0749875 -0.336317 0)
(-0.0849436 -0.35924 0)
(-0.0893599 -0.375784 0)
(-0.086996 -0.382046 0)
(-0.0771818 -0.373095 0)
(-0.0603049 -0.343209 0)
(-0.0384207 -0.286507 0)
(-0.0165863 -0.198135 0)
(-0.00328065 -0.0762482 0)
(0.183571 0.00522246 0)
(0.183227 -0.00791431 0)
(0.180844 -0.0213031 0)
(0.176391 -0.0350934 0)
(0.169834 -0.0494434 0)
(0.161143 -0.0645205 0)
(0.150294 -0.0805028 0)
(0.137277 -0.0975778 0)
(0.122107 -0.11594 0)
(0.104837 -0.135783 0)
(0.0855802 -0.15729 0)
(0.0645348 -0.180611 0)
(0.0420206 -0.205826 0)
(0.0185225 -0.232893 0)
(-0.0052583 -0.261562 0)
(-0.0283505 -0.291252 0)
(-0.0494689 -0.32087 0)
(-0.0670034 -0.348582 0)
(-0.0790838 -0.371523 0)
(-0.083789 -0.385492 0)
(-0.0795728 -0.384737 0)
(-0.0659049 -0.362003 0)
(-0.0442393 -0.309102 0)
(-0.0201223 -0.218392 0)
(-0.00424523 -0.0858123 0)
(0.2549 0.00447181 0)
(0.254669 -0.00658221 0)
(0.252314 -0.0178543 0)
(0.247794 -0.0294884 0)
(0.24106 -0.0416384 0)
(0.232053 -0.0544714 0)
(0.220711 -0.0681698 0)
(0.206972 -0.0829337 0)
(0.190783 -0.0989815 0)
(0.172113 -0.116549 0)
(0.150969 -0.135883 0)
(0.127424 -0.15723 0)
(0.101656 -0.180812 0)
(0.073994 -0.206782 0)
(0.0449888 -0.23515 0)
(0.0154959 -0.265662 0)
(-0.013232 -0.297611 0)
(-0.0394612 -0.329553 0)
(-0.0609461 -0.358912 0)
(-0.0750417 -0.38148 0)
(-0.079084 -0.390887 0)
(-0.0711178 -0.378264 0)
(-0.0512736 -0.332478 0)
(-0.0250525 -0.241707 0)
(-0.00575408 -0.0977596 0)
(0.333512 0.00359527 0)
(0.333365 -0.00532627 0)
(0.331084 -0.0144276 0)
(0.326623 -0.0238391 0)
(0.319917 -0.0337017 0)
(0.310884 -0.044171 0)
(0.299426 -0.0554213 0)
(0.285435 -0.0676497 0)
(0.26879 -0.0810803 0)
(0.249373 -0.095968 0)
(0.227077 -0.1126 0)
(0.201832 -0.131294 0)
(0.173635 -0.152386 0)
(0.142599 -0.17621 0)
(0.109032 -0.203038 0)
(0.0735379 -0.232989 0)
(0.0371539 -0.265848 0)
(0.00152122 -0.300771 0)
(-0.0309513 -0.335811 0)
(-0.0570147 -0.36721 0)
(-0.0727669 -0.388469 0)
(-0.0742829 -0.389355 0)
(-0.0592865 -0.355319 0)
(-0.0319925 -0.268521 0)
(-0.00819928 -0.113241 0)
(0.419315 0.00266631 0)
(0.419214 -0.00415317 0)
(0.417056 -0.0111123 0)
(0.412791 -0.018321 0)
(0.406343 -0.0258994 0)
(0.397616 -0.033982 0)
(0.386484 -0.0427224 0)
(0.372799 -0.0522991 0)
(0.356384 -0.0629218 0)
(0.337043 -0.0748388 0)
(0.31456 -0.0883449 0)
(0.28872 -0.103788 0)
(0.259321 -0.121577 0)
(0.226222 -0.142172 0)
(0.189408 -0.16607 0)
(0.14909 -0.193747 0)
(0.105873 -0.225528 0)
(0.0609913 -0.261334 0)
(0.0166218 -0.300201 0)
(-0.0237822 -0.33944 0)
(-0.0552901 -0.373283 0)
(-0.0716747 -0.390987 0)
(-0.0669145 -0.374737 0)
(-0.041537 -0.298746 0)
(-0.0121937 -0.134044 0)
(0.512058 0.00177064 0)
(0.511963 -0.00306719 0)
(0.50998 -0.00800536 0)
(0.50606 -0.0131286 0)
(0.500125 -0.0185304 0)
(0.49207 -0.0243165 0)
(0.481755 -0.0306101 0)
(0.469007 -0.0375572 0)
(0.453613 -0.0453341 0)
(0.435319 -0.0541565 0)
(0.413826 -0.0642912 0)
(0.388792 -0.0760699 0)
(0.359837 -0.0899061 0)
(0.326563 -0.106313 0)
(0.288594 -0.125915 0)
(0.245655 -0.14945 0)
(0.197714 -0.177717 0)
(0.145238 -0.211432 0)
(0.0896016 -0.250865 0)
(0.0336879 -0.295033 0)
(-0.0173617 -0.340112 0)
(-0.0554236 -0.376579 0)
(-0.069732 -0.384942 0)
(-0.0532982 -0.330657 0)
(-0.0183759 -0.162888 0)
(0.611318 0.000996046 0)