/*--------------------------------*- C++ -*----------------------------------*\
| =========                 |                                                 |
| \\      /  F ield         | OpenFOAM: The Open Source CFD Toolbox           |
|  \\    /   O peration     | Version:  v2012                                 |
|   \\  /    A nd           | Website:  www.openfoam.com                      |
|    \\/     M anipulation  |                                                 |
\*---------------------------------------------------------------------------*/
FoamFile
{
    version     2.0;
    format      ascii;
    class       volScalarField;
    location    "0.2";
    object      p;
}
// * * * * * * * * * * * * * * * * * * * * * * * * * * * * * * * * * * * * * //

dimensions      [0 2 -2 0 0 0 0];


internalField   nonuniform List<scalar> 
2500
(
4.73466e-06
-0.000557546
-0.00229375
-0.00491403
-0.00800117
-0.0112257
-0.0143308
-0.0171163
-0.0194312
-0.0211646
-0.0222389
-0.0226036
-0.0222308
-0.0211119
-0.0192541
-0.0166785
-0.0134178
-0.00951516
-0.00502234
1.09083e-06
0.00548887
0.0113689
0.0175641
0.023993
0.0305708
0.0372101
0.0438218
0.0503157
0.056602
0.0625924
0.068201
0.0733458
0.0779507
0.0819464
0.0852725
0.0878795
0.0897302
0.0908025
0.091091
0.09061
0.0893958
0.0875102
0.0850442
0.0821226
0.07891
0.0756174
0.0725081
0.0699092
0.0682273
0.0677199
0.000572417
9.56983e-06
-0.00142945
-0.00352214
-0.00597433
-0.00854493
-0.0110318
-0.0132682
-0.015122
-0.016492
-0.0173043
-0.0175086
-0.0170745
-0.0159891
-0.0142545
-0.0118857
-0.00890899
-0.00536049
-0.00128481
0.00326591
0.00823303
0.0135523
0.0191545
0.0249666
0.0309119
0.0369117
0.0428856
0.0487526
0.0544319
0.0598443
0.0649135
0.0695668
0.0737373
0.0773646
0.080397
0.0827928
0.0845225
0.0855699
0.0859348
0.0856346
0.0847068
0.0832111
0.0812321
0.0788821
0.0763041
0.0736733
0.0711968
0.0691137
0.067716
0.0672128
0.00231088
0.00144828
-8.91146e-07
-0.00189128
-0.0040354
-0.00625029
-0.00837501
-0.010273
-0.0118322
-0.0129641
-0.013602
-0.0136992
-0.0132263
-0.0121694
-0.0105281
-0.00831406
-0.00554939
-0.00226547
0.00149822
0.00569504
0.0102721
0.0151711
0.020329
0.0256791
0.0311513
0.0366734
0.0421718
0.0475722
0.0528009
0.0577855
0.0624564
0.0667479
0.0705994
0.0739569
0.0767744
0.0790154
0.0806548
0.0816799
0.0820925
0.0819107
0.0811699
0.0799254
0.0782532
0.0762517
0.0740428
0.0717708
0.0696015
0.067719
0.0663153
0.0655345
0.00495946
0.00355518
0.00186608
-5.37472e-05
-0.00212067
-0.00419303
-0.00614135
-0.00785607
-0.00924502
-0.0102336
-0.0107647
-0.0107974
-0.0103055
-0.0092765
-0.00770967
-0.00561521
-0.00301285
6.91077e-05
0.00359481
0.00752168
0.0118012
0.0163797
0.0211991
0.0261975
0.0313101
0.0364699
0.0416085
0.046657
0.0515468
0.0562107
0.0605842
0.0646063
0.0682211
0.0713786
0.0740366
0.0761618
0.0777312
0.0787334
0.0791704
0.0790584
0.0784294
0.0773321
0.0758328
0.0740159
0.0719833
0.069853
0.0677603
0.0658501
0.0642166
0.0629211
0.00813855
0.00606378
0.00400735
0.00193095
-0.000184978
-0.00223254
-0.0041087
-0.00572866
-0.00701952
-0.00792094
-0.00838597
-0.0083808
-0.0078839
-0.00688515
-0.00538487
-0.00339289
-0.000927616
0.00198481
0.0053113
0.0090125
0.0130435
0.0173547
0.0218919
0.0265977
0.0314118
0.0362713
0.0411126
0.0458711
0.0504824
0.0548838
0.0590146
0.0628177
0.0662404
0.0692359
0.0717644
0.0737944
0.0753039
0.0762816
0.0767281
0.0766568
0.0760951
0.0750843
0.0736808
0.0719549
0.0699898
0.06788
0.0657357
0.0636702
0.06168
0.0597385
0.0115596
0.00875991
0.00626007
0.0039387
0.00168069
-0.000432599
-0.00231964
-0.0039174
-0.0051707
-0.00603279
-0.00646709
-0.00644737
-0.0059574
-0.00499046
-0.00354869
-0.00164249
0.000710207
0.00348456
0.00664945
0.010168
0.0139983
0.0180938
0.0224039
0.0268747
0.0314495
0.0360693
0.040674
0.0452027
0.0495944
0.0537898
0.057731
0.0613639
0.064638
0.0675085
0.069937
0.0718926
0.0733532
0.0743065
0.0747509
0.0746962
0.0741643
0.0731891
0.0718169
0.0701053
0.0681207
0.0659372
0.0636452
0.0613335
0.0589081
0.0562629
0.0150023
0.0114651
0.00847936
0.00585215
0.00338335
0.00113448
-0.000829626
-0.00246447
-0.00373051
-0.00459353
-0.00502687
-0.00501196
-0.00453821
-0.0036028
-0.00221037
-0.000372553
0.00189244
0.00456035
0.0076013
0.0109803
0.0146575
0.0185889
0.0227266
0.0270198
0.0314145
0.0358548
0.0402834
0.0446422
0.048873
0.0529185
0.0567234
0.0602349
0.0634042
0.0661873
0.0685461
0.0704495
0.0718743
0.0728063
0.0732409
0.0731837
0.0726509
0.071669
0.0702751
0.068515
0.0664408
0.0641099
0.0615977
0.0589756
0.056069
0.052704
0.0182955
0.0140297
0.0105383
0.00756706
0.00484069
0.00240642
0.00031644
-0.00140015
-0.00271737
-0.00361221
-0.00406725
-0.00407128
-0.0036194
-0.002713
-0.00135957
0.000427478
0.00262914
0.00522112
0.00817421
0.0114545
0.0150239
0.0188402
0.0228576
0.0270275
0.0312981
0.0356162
0.0399261
0.044172
0.0482975
0.052247
0.0559663
0.0594037
0.0625107
0.0652433
0.067563
0.0694374
0.0708417
0.0717589
0.0721809
0.0721087
0.0715527
0.0705325
0.0690764
0.0672202
0.0650042
0.0624719
0.0596885
0.0567136
0.053302
0.0492216
0.0213054
0.016329
0.0123259
0.0089881
0.00597366
0.00331975
0.00106932
-0.000761274
-0.00215761
-0.00310656
-0.00359907
-0.00363089
-0.00320267
-0.00232004
-0.00099363
0.000761078
0.00292385
0.00546992
0.00837017
0.0115914
0.0150965
0.0188446
0.0227915
0.0268901
0.0310904
0.0353408
0.0395871
0.0437749
0.0478489
0.0517543
0.0554375
0.0588468
0.0619335
0.0646528
0.0669649
0.0688356
0.0702373
0.0711501
0.0715618
0.0714686
0.0708752
0.0697946
0.0682474
0.0662607
0.0638648
0.0610928
0.0580032
0.0546482
0.0507204
0.0459374
0.0239252
0.0182582
0.0137445
0.0100279
0.00670631
0.00381014
0.00137569
-0.000591086
-0.00208561
-0.00310338
-0.00364289
-0.00370629
-0.00329954
-0.00243251
-0.00111903
0.000623092
0.0027721
0.00530239
0.00818455
0.0113856
0.0148689
0.0185945
0.0225193
0.0265972
0.0307794
0.0350152
0.0392516
0.0434347
0.0475098
0.0514223
0.0551184
0.0585458
0.0616548
0.0643991
0.0667369
0.0686314
0.0700521
0.0709751
0.0713841
0.0712703
0.0706328
0.0694782
0.0678205
0.0656793
0.063077
0.0600386
0.0566186
0.0528658
0.0484168
0.0429448
0.026067
0.0197275
0.0147073
0.010606
0.00696615
0.00381369
0.00118034
-0.000936563
-0.00254083
-0.00363547
-0.00422574
-0.00431972
-0.00392836
-0.00306564
-0.00174868
2.28275e-06
0.00216374
0.00470894
0.00760789
0.0108274
0.014331
0.0180792
0.0220294
0.0261362
0.0303514
0.034625
0.0389041
0.0431354
0.0472638
0.0512345
0.0549927
0.058485
0.06166
0.0644694
0.0668685
0.0688176
0.0702824
0.0712349
0.0716542
0.0715263
0.0708448
0.0696106
0.0678314
0.0655206
0.0626942
0.0593712
0.0556044
0.051442
0.0464691
0.0403181
0.0276548
0.0206571
0.0151353
0.0106473
0.00668347
0.00326704
0.000426628
-0.00184763
-0.00356678
-0.00474049
-0.00538011
-0.00549914
-0.00511327
-0.00424048
-0.0029011
-0.00111796
0.00108352
0.00367526
0.00662638
0.00990318
0.0134691
0.0172846
0.0213073
0.0254921
0.0297911
0.0341541
0.0385286
0.0428607
0.0470948
0.0511752
0.0550456
0.058651
0.0619376
0.0648544
0.0673534
0.0693913
0.0709295
0.0719356
0.0723835
0.0722542
0.0715356
0.0702231
0.0683187
0.0658307
0.0627696
0.0591501
0.0550253
0.0504444
0.0449443
0.0381186
0.0286202
0.020974
0.0149548
0.0100801
0.0057902
0.00210678
-0.000943589
-0.00337696
-0.00521075
-0.00646058
-0.00714336
-0.00727769
-0.00688374
-0.00598331
-0.0046
-0.00275924
-0.000488503
0.00218259
0.00522209
0.00859557
0.012266
0.0161936
0.020336
0.0246478
0.0290811
0.0335855
0.038108
0.0425939
0.0469869
0.0512294
0.0552636
0.059032
0.0624782
0.0655475
0.0681885
0.0703534
0.071999
0.0730877
0.0735883
0.0734761
0.0727335
0.0713505
0.0693239
0.0666572
0.0633567
0.0594336
0.0549428
0.049936
0.0439033
0.0364008
0.0288989
0.0206092
0.014095
0.00883456
0.00421885
0.000268863
-0.00299022
-0.00557994
-0.00752348
-0.0088419
-0.00955734
-0.00969321
-0.00927398
-0.00832524
-0.00687377
-0.0049477
-0.00257664
0.000208109
0.00337333
0.00688367
0.0107014
0.0147864
0.0190958
0.023584
0.0282025
0.0329005
0.0376242
0.0423179
0.0469238
0.0513825
0.0556339
0.0596177
0.0632741
0.0665446
0.0693735
0.0717079
0.0734997
0.0747057
0.0752886
0.0752182
0.0744711
0.0730316
0.0708917
0.0680504
0.0645105
0.0602805
0.0554179
0.0499779
0.0434043
0.0352156
0.0284276
0.0194947
0.0124863
0.00684106
0.00190142
-0.00231214
-0.00577534
-0.0085148
-0.0105591
-0.0119345
-0.012668
-0.0127878
-0.0123226
-0.0113016
-0.00975499
-0.00771351
-0.00520904
-0.00227468
0.00105494
0.00474341
0.00875221
0.0130405
0.0175649
0.0222792
0.0271346
0.0320791
0.0370582
0.0420147
0.0468891
0.0516199
0.0561442
0.0603985
0.0643191
0.0678433
0.0709103
0.0734619
0.075444
0.0768074
0.0775086
0.0775108
0.0767848
0.075309
0.0730704
0.0700639
0.0662887
0.0617512
0.0565123
0.0506315
0.0435052
0.0346139
0.0271423
0.0175621
0.010058
0.00402897
-0.00123172
-0.00570379
-0.00936366
-0.0122429
-0.0143752
-0.015792
-0.0165252
-0.0166075
-0.016072
-0.0149517
-0.01328
-0.0110904
-0.00841725
-0.00529546
-0.00176119
0.00214795
0.00639253
0.0109309
0.0157191
0.0207103
0.0258547
0.0310997
0.0363895
0.0416653
0.0468656
0.0519265
0.0567822
0.0613653
0.0656079
0.0694425
0.0728027
0.0756244
0.0778469
0.0794141
0.0802757
0.0803881
0.0797153
0.0782296
0.0759127
0.0727551
0.0687526
0.0639099
0.0582912
0.0519609
0.0442668
0.0346497
0.0249767
0.014741
0.00673767
0.000325238
-0.00525286
-0.00997663
-0.0138232
-0.0168289
-0.019033
-0.0204718
-0.0211823
-0.0212021
-0.0205684
-0.0193182
-0.0174883
-0.0151153
-0.0122357
-0.00888657
-0.00510567
-0.00093184
0.00359449
0.00843091
0.0135327
0.0188522
0.0243391
0.0299396
0.0355966
0.0412498
0.0468356
0.0522872
0.0575355
0.0625093
0.0671359
0.0713424
0.0750562
0.0782066
0.0807257
0.08255
0.0836212
0.0838882
0.0833075
0.0818449
0.079476
0.0761867
0.0719689
0.0668255
0.0608244
0.0540352
0.0457546
0.0353819
0.0218602
0.0109571
0.00244903
-0.00434673
-0.0102379
-0.0152049
-0.0192256
-0.0223416
-0.0245975
-0.0260351
-0.0266967
-0.0266247
-0.025861
-0.0244467
-0.0224223
-0.0198273
-0.016701
-0.0130824
-0.00901098
-0.00452682
0.00032862
0.00551213
0.0109782
0.0166788
0.0225626
0.0285748
0.0346572
0.0407477
0.0467804
0.052686
0.0583916
0.0638217
0.0688987
0.0735436
0.0776772
0.0812215
0.0841004
0.0862421
0.0875797
0.0880533
0.0876114
0.0862118
0.0838236
0.0804271
0.0760104
0.0705736
0.0641887
0.0569303
0.0480409
0.0368764
0.0177178
0.00613142
-0.00288881
-0.0100683
-0.0162676
-0.0214676
-0.0256473
-0.0288538
-0.0311378
-0.0325468
-0.0331287
-0.0329314
-0.0320018
-0.0303854
-0.0281264
-0.0252678
-0.0218515
-0.0179188
-0.0135107
-0.00866883
-0.00343543
0.00214551
0.00802794
0.0141632
0.0204993
0.0269807
0.033548
0.0401375
0.0466811
0.0531065
0.0593373
0.0652935
0.070892
0.0760473
0.0806733
0.0846834
0.0879929
0.0905204
0.0921894
0.0929302
0.0926817
0.0913929
0.0890252
0.0855525
0.0809578
0.0752381
0.0684692
0.0607307
0.0512074
0.0392087
0.0124681
0.000179056
-0.00936276
-0.0169267
-0.0234282
-0.0288491
-0.0331697
-0.0364434
-0.0387273
-0.0400756
-0.0405424
-0.0401815
-0.0390452
-0.037184
-0.0346464
-0.0314788
-0.027726
-0.0234318
-0.0186388
-0.0133898
-0.007728
-0.001698
0.00465381
0.0112784
0.0181234
0.0251326
0.0322457
0.0393976
0.046518
0.053532
0.0603594
0.0669155
0.0731115
0.0788553
0.0840526
0.088608
0.092427
0.0954177
0.0974923
0.0985701
0.098579
0.0974577
0.0951584
0.0916472
0.0869009
0.0809127
0.0737615
0.0655318
0.0553463
0.0424651
0.00602281
-0.00699222
-0.017067
-0.0250162
-0.0318129
-0.0374401
-0.0418801
-0.0451932
-0.0474441
-0.0486941
-0.0490046
-0.0484361
-0.0470472
-0.0448936
-0.0420285
-0.0385024
-0.0343632
-0.0296569
-0.024428
-0.0187205
-0.0125783
-0.00604633
0.000828926
0.00799836
0.0154096
0.0230062
0.0307272
0.0385064
0.0462717
0.0539456
0.0614443
0.0686783
0.0755531
0.0819693
0.087824
0.0930122
0.0974286
0.100969
0.103534
0.105029
0.10537
0.104483
0.102309
0.0988054
0.0939407
0.0877029
0.0801736
0.0714419
0.0605634
0.0467453
-0.00171461
-0.0154832
-0.0261042
-0.0344398
-0.0415231
-0.0473391
-0.0518727
-0.0551921
-0.0573709
-0.0584787
-0.0585852
-0.0577587
-0.0560647
-0.0535651
-0.0503186
-0.0463797
-0.0417998
-0.0366275
-0.0309091
-0.0246895
-0.0180132
-0.0109251
-0.00347138
0.00429918
0.0123347
0.0205789
0.0289707
0.0374432
0.0459231
0.0543305
0.0625783
0.0705725
0.0782124
0.0853911
0.0919969
0.0979141
0.103025
0.107213
0.110364
0.112369
0.113128
0.112553
0.110573
0.107133
0.102191
0.0957279
0.0878283
0.0785846
0.0669798
0.0521644
-0.01085
-0.0254046
-0.0365876
-0.0453104
-0.0526697
-0.0586531
-0.0632492
-0.0665355
-0.0685958
-0.0695097
-0.0693565
-0.0682136
-0.0661547
-0.0632488
-0.0595603
-0.0551489
-0.0500696
-0.0443736
-0.0381089
-0.0313213
-0.0240554
-0.0163558
-0.00826806
0.000160262
0.00887819
0.0178304
0.0269563
0.036189
0.0454545
0.0546711
0.0637486
0.0725889
0.0810852
0.089123
0.0965811
0.103332
0.109246
0.114191
0.118036
0.120656
0.121933
0.121763
0.120058
0.116747
0.111778
0.105123
0.0968654
0.0871012
0.0747346
0.0588551
-0.0215003
-0.0368791
-0.0486425
-0.0577529
-0.0653749
-0.0714995
-0.0761201
-0.0793257
-0.081212
-0.0818708
-0.0813926
-0.0798656
-0.0773729
-0.073992
-0.0697941
-0.0648441
-0.0592012
-0.0529194
-0.0460483
-0.0386343
-0.0307218
-0.0223545
-0.0135766
-0.00443387
0.00502446
0.0147447
0.0246679
0.0347277
0.0448503
0.054953
0.0649432
0.0747189
0.0841677
0.0931674
0.101587
0.109287
0.116123
0.121946
0.126608
0.129963
0.131875
0.132217
0.130882
0.127782
0.122849
0.116042
0.107445
0.0971542
0.0839882
0.0669711
-0.0337952
-0.0500438
-0.0624088
-0.0719066
-0.0797742
-0.0860073
-0.0906061
-0.093673
-0.0953187
-0.095649
-0.0947686
-0.0927782
-0.0897724
-0.0858381
-0.0810544
-0.0754925
-0.0692159
-0.0622813
-0.05474
-0.0466387
-0.0380211
-0.0289291
-0.0194049
-0.00949165
0.000764168
0.0113116
0.0220941
0.0330473
0.0440984
0.0551645
0.0661519
0.0769551
0.0874567
0.097527
0.107025
0.115798
0.123687
0.130524
0.136141
0.140371
0.14305
0.14403
0.14318
0.140388
0.135568
0.128662
0.11975
0.10893
0.0949257
0.0766899
-0.0478797
-0.0650527
-0.0780444
-0.0879281
-0.0960191
-0.10232
-0.106839
-0.109696
-0.11102
-0.110934
-0.10956
-0.107013
-0.103402
-0.0988239
-0.0933682
-0.0871124
-0.0801248
-0.0724653
-0.0641862
-0.055334
-0.0459512
-0.0360772
-0.025751
-0.0150123
-0.00390353
0.00752833
0.0192303
0.0311413
0.0431909
0.0552974
0.0673669
0.0792917
0.0909499
0.102205
0.112905
0.122887
0.131972
0.139975
0.146703
0.151962
0.155565
0.157331
0.157099
0.154734
0.15012
0.143182
0.133992
0.122645
0.107761
0.088217
-0.0639173
-0.082081
-0.0957291
-0.105995
-0.114281
-0.120597
-0.124964
-0.127524
-0.128427
-0.127819
-0.12584
-0.122627
-0.118302
-0.112977
-0.106751
-0.0997099
-0.0919265
-0.0834637
-0.0743749
-0.0647059
-0.0544966
-0.0437833
-0.0326007
-0.0209834
-0.00896878
0.00340174
0.0160803
0.0290107
0.0421263
0.0553484
0.0685841
0.0817251
0.0946462
0.107205
0.11924
0.130574
0.141012
0.150347
0.158361
0.16483
0.169534
0.172259
0.172807
0.17101
0.16672
0.159834
0.150413
0.138549
0.122743
0.101791
-0.0820945
-0.10133
-0.115669
-0.126311
-0.134753
-0.141017
-0.145142
-0.147296
-0.147655
-0.146395
-0.14368
-0.139669
-0.134504
-0.128313
-0.121205
-0.113275
-0.104602
-0.0952518
-0.0852772
-0.0747228
-0.0636251
-0.052016
-0.0399243
-0.0273785
-0.0144087
-0.00104941
0.0126584
0.0266653
0.0409104
0.0553198
0.0698036
0.0842547
0.0985462
0.112531
0.126039
0.13888
0.150841
0.161693
0.171188
0.179072
0.185084
0.188969
0.19049
0.189432
0.185609
0.178883
0.169296
0.156932
0.14016
0.117689
-0.102627
-0.123034
-0.138106
-0.149112
-0.157658
-0.163784
-0.167551
-0.16916
-0.168826
-0.166754
-0.163144
-0.15818
-0.152027
-0.14483
-0.136713
-0.127779
-0.118114
-0.107784
-0.0968433
-0.0853329
-0.0732849
-0.060725
-0.0476746
-0.034154
-0.0201849
-0.00579239
0.00899135
0.0241257
0.039558
0.0552211
0.0710308
0.0868832
0.102652
0.118187
0.133312
0.147823
0.161492
0.174063
0.185259
0.194788
0.202347
0.207632
0.210353
0.210243
0.207065
0.200635
0.190969
0.178133
0.160352
0.136234
-0.125766
-0.147469
-0.163322
-0.174674
-0.183255
-0.189129
-0.192389
-0.19328
-0.192062
-0.188986
-0.184288
-0.178185
-0.170868
-0.162505
-0.153234
-0.143168
-0.132396
-0.120989
-0.108998
-0.0964602
-0.0834008
-0.0698377
-0.0557832
-0.0412475
-0.0262413
-0.0107786
0.00511995
0.0214248
0.0380939
0.0550699
0.0722769
0.0896169
0.106967
0.124178
0.141066
0.15742
0.172993
0.187505
0.200647
0.212085
0.221467
0.228431
0.232626
0.233719
0.231407
0.225446
0.215814
0.202552
0.183716
0.157808
-0.15181
-0.174965
-0.191657
-0.203325
-0.211845
-0.217316
-0.219876
-0.219828
-0.217493
-0.213173
-0.207152
-0.199688
-0.191004
-0.181289
-0.170699
-0.159357
-0.147356
-0.134768
-0.121639
-0.108001
-0.0938715
-0.0792571
-0.0641591
-0.048575
-0.0325024
-0.0159416
0.00110064
0.0186087
0.0365542
0.0548924
0.073559
0.0924657
0.111497
0.130504
0.149306
0.167681
0.185368
0.202062
0.217422
0.231068
0.242591
0.251566
0.257563
0.260169
0.258998
0.253728
0.244283
0.230661
0.210727
0.182858
-0.181122
-0.205923
-0.223521
-0.235456
-0.243782
-0.24865
-0.250259
-0.248992
-0.245243
-0.239384
-0.231758
-0.222669
-0.212377
-0.201098
-0.189004
-0.176227
-0.162865
-0.148985
-0.13463
-0.119822
-0.104567
-0.088859
-0.0726859
-0.0560296
-0.0388719
-0.0211966
-0.00299387
0.0157376
0.0349861
0.0547233
0.0749001
0.0954418
0.116244
0.137167
0.15803
0.178609
0.19863
0.217768
0.235647
0.251838
0.265872
0.277246
0.28544
0.289942
0.290259
0.285965
0.276906
0.263024
0.241948
0.211921
-0.214145
-0.240839
-0.259418
-0.271542
-0.279489
-0.283485
-0.283814
-0.280965
-0.275431
-0.26767
-0.258096
-0.247069
-0.234891
-0.221806
-0.208
-0.193616
-0.178751
-0.163467
-0.147798
-0.131753
-0.115325
-0.0984909
-0.0812215
-0.063481
-0.0452323
-0.0264402
-0.0070748
0.012885
0.0334477
0.054605
0.0763274
0.0985586
0.12121
0.144156
0.167224
0.190192
0.212778
0.23464
0.255368
0.274487
0.291458
0.30569
0.31656
0.323429
0.325671
0.322722
0.314321
0.300318
0.278064
0.24564
-0.251433
-0.280334
-0.299974
-0.312166
-0.319472
-0.322228
-0.320844
-0.315948
-0.308162
-0.298051
-0.286117
-0.272785
-0.258399
-0.243234
-0.227491
-0.211315
-0.1948
-0.178
-0.160933
-0.143593
-0.125953
-0.107971
-0.089598
-0.0707758
-0.0514461
-0.0315513
-0.0110387
0.0101361
0.0320055
0.0545853
0.0778701
0.101827
0.126391
0.151455
0.176862
0.2024
0.227788
0.25267
0.27661
0.299085
0.319484
0.337119
0.351241
0.361064
0.365786
0.364666
0.357288
0.343369
0.31991
0.2848
-0.293692
-0.3252
-0.345981
-0.358049
-0.364339
-0.365354
-0.361682
-0.354139
-0.343513
-0.330505
-0.315717
-0.299648
-0.28269
-0.265142
-0.247216
-0.229057
-0.210747
-0.192322
-0.173783
-0.155101
-0.136226
-0.117092
-0.0976236
-0.0777406
-0.0573585
-0.0363948
-0.0147707
0.00758485
0.0307317
0.054714
0.0795556
0.105253
0.131771
0.159028
0.186895
0.215176
0.243602
0.271816
0.29936
0.325668
0.35006
0.371741
0.389818
0.403323
0.411239
0.412586
0.40673
0.393191
0.368521
0.330369
-0.341842
-0.376465
-0.398454
-0.410091
-0.414824
-0.413408
-0.406682
-0.395717
-0.381515
-0.36494
-0.346714
-0.327412
-0.307473
-0.287215
-0.266851
-0.246515
-0.226269
-0.206126
-0.186057
-0.166005
-0.14589
-0.125619
-0.105087
-0.0841854
-0.0628019
-0.0408258
-0.0181492
0.0053286
0.0296985
0.0550375
0.0814033
0.108829
0.137314
0.166817
0.197241
0.228424
0.260119
0.291982
0.323549
0.354221
0.383251
0.409735
0.432619
0.45072
0.46275
0.467413
0.463772
0.45105
0.425203
0.383563
-0.397096
-0.435487
-0.458707
-0.469426
-0.471815
-0.467007
-0.456206
-0.440821
-0.422123
-0.401173
-0.378824
-0.355729
-0.332362
-0.309049
-0.285992
-0.263296
-0.240992
-0.219057
-0.197424
-0.176
-0.154668
-0.133301
-0.111763
-0.089911
-0.067603
-0.0446968
-0.0210532
0.00346115
0.0289716
0.0555915
0.0834181
0.112526
0.142961
0.174727
0.207777
0.241994
0.277174
0.313002
0.349029
0.384643
0.419042
0.451219
0.479946
0.50379
0.521127
0.53025
0.529795
0.518542
0.491628
0.44594
-0.461104
-0.504094
-0.528468
-0.537489
-0.536374
-0.526838
-0.510596
-0.489505
-0.465173
-0.438885
-0.411627
-0.384119
-0.356854
-0.330141
-0.304148
-0.278935
-0.254483
-0.230718
-0.207523
-0.184759
-0.162267
-0.139879
-0.117422
-0.0947181
-0.0715915
-0.0478668
-0.0233712
0.00206377
0.0286003
0.0563922
0.0855803
0.116288
0.148614
0.182621
0.218324
0.25567
0.294519
0.334613
0.375545
0.416718
0.457304
0.496208
0.532029
0.563056
0.587258
0.602395
0.606507
0.597714
0.569982
0.51954
-0.536159
-0.584799
-0.61004
-0.616099
-0.609762
-0.593624
-0.570117
-0.541681
-0.510323
-0.477568
-0.444523
-0.411944
-0.380307
-0.349873
-0.320741
-0.292901
-0.26626
-0.240675
-0.215968
-0.191942
-0.168388
-0.145093
-0.121841
-0.0984185
-0.0746123
-0.0502127
-0.025012
0.00119458
0.0286084
0.0574258
0.087836
0.120016
0.154127
0.1903
0.228629
0.269145
0.311799
0.356422
0.402688
0.45006
0.497728
0.544545
0.588963
0.628976
0.662079
0.685357
0.696028
0.691224
0.663191
0.607109
-0.625548
-0.681127
-0.706517
-0.707554
-0.69343
-0.668063
-0.634869
-0.597018
-0.556965
-0.516458
-0.476681
-0.43837
-0.401925
-0.367505
-0.335102
-0.304597
-0.275797
-0.248472
-0.222364
-0.197211
-0.172744
-0.1487
-0.12482
-0.100849
-0.0765378
-0.0516416
-0.0259171
0.000876976
0.0289818
0.0586381
0.0900856
0.123561
0.159293
0.197494
0.238352
0.282005
0.328525
0.377873
0.429855
0.484054
0.539748
0.59581
0.650599
0.701839
0.746505
0.780849
0.800981
0.802569
0.775262
0.712475
-0.734155
-0.798139
-0.822091
-0.81472
-0.788963
-0.750693
-0.70463
-0.654801
-0.604105
-0.554445
-0.50698
-0.46233
-0.420732
-0.382172
-0.346476
-0.313373
-0.282544
-0.253643
-0.226324
-0.200244
-0.175073
-0.150491
-0.126193
-0.101885
-0.0772822
-0.0521035
-0.0260724
0.00108824
0.0296585
0.0599233
0.0921744
0.12671
0.163834
0.203848
0.247049
0.293708
0.344048
0.398208
0.456189
0.517777
0.582439
0.649183
0.716388
0.7816
0.84128
0.890718
0.924578
0.936397
0.911827
0.841182
-0.869549
-0.943256
-0.962443
-0.941066
-0.897912
-0.841648
-0.778606
-0.713716
-0.650208
-0.589965
-0.533947
-0.482499
-0.435574
-0.39289
-0.354039
-0.318551
-0.285944
-0.255742
-0.227491
-0.200763
-0.175158
-0.150304
-0.125848
-0.101459
-0.0768142
-0.0516039
-0.0255192
0.00174984
0.0305196
0.0611173
0.0938852
0.129184
0.167394
0.208916
0.254166
0.303569
0.357534
0.416429
0.480524
0.549913
0.624388
0.703268
0.785154
0.867608
0.946718
1.01677
1.07065
1.0989
1.081
1.00165
-1.04405
-1.12758
-1.13521
-1.09056
-1.02143
-0.940224
-0.855054
-0.771568
-0.693005
-0.620891
-0.555699
-0.497276
-0.445125
-0.398583
-0.356931
-0.319453
-0.285473
-0.254367
-0.225564
-0.198549
-0.172852
-0.148048
-0.123742
-0.0995658
-0.0751688
-0.0502125
-0.0243618
0.00272138
0.031385
0.0619939
0.094937
0.130634
0.169542
0.21216
0.259035
0.310758
0.367957
0.431277
0.501339
0.578664
0.66355
0.755871
0.854769
0.9582
1.06223
1.16036
1.24354
1.2983
1.29474
1.20734
-1.27893
-1.36798
-1.35028
-1.26712
-1.15945
-1.04412
-0.930692
-0.824885
-0.729264
-0.644421
-0.569914
-0.504794
-0.44792
-0.398122
-0.354298
-0.315445
-0.280671
-0.249194
-0.220328
-0.193471
-0.168092
-0.143715
-0.11991
-0.0962808
-0.0724533
-0.0480681
-0.0227701
0.00379983
0.0320143
0.0622685
0.0949905
0.130652
0.169779
0.212967
0.260891
0.314315
0.374105
0.441226
0.516723
0.601676
0.697094
0.803725
0.921719
1.05005
1.18552
1.32153
1.44746
1.54509
1.57102
1.48125
-1.61289
-1.69017
-1.61932
-1.47289
-1.30891
-1.14803
-0.999754
-0.868355
-0.754491
-0.656951
-0.573801
-0.50295
-0.442403
-0.390382
-0.345343
-0.305976
-0.271173
-0.240001
-0.211668
-0.185497
-0.160906
-0.137382
-0.11447
-0.0917539
-0.0688463
-0.0453759
-0.0209761
0.00472414
0.0321127
0.061605
0.0936569
0.12878
0.167557
0.210664
0.258892
0.313172
0.374608
0.4445
0.524373
0.615974
0.721236
0.842151
0.98048
1.13715
1.31103
1.49708
1.68467
1.8515
1.93683
1.86471
-2.1167
-2.13162
-1.95349
-1.7052
-1.46123
-1.24197
-1.05308
-0.894458
-0.762891
-0.654189
-0.564276
-0.489575
-0.427089
-0.374367
-0.329426
-0.290662
-0.256778
-0.226716
-0.199604
-0.174714
-0.151431
-0.129223
-0.107623
-0.086209
-0.0645911
-0.0423969
-0.0192592
0.00519443
0.0313552
0.0596455
0.0905343
0.124555
0.162328
0.204584
0.252205
0.306258
0.368055
0.439215
0.521741
0.618106
0.731326
0.864985
1.02314
1.20989
1.42826
1.67793
1.95232
2.22901
2.43088
2.43192
-2.91882
-2.74199
-2.35914
-1.95416
-1.60136
-1.31132
-1.07886
-0.894541
-0.748488
-0.632197
-0.538857
-0.463191
-0.401167
-0.349709
-0.306461
-0.269597
-0.237692
-0.209613
-0.184448
-0.161453
-0.140005
-0.119574
-0.0996995
-0.0799678
-0.0599991
-0.0394317
-0.0179099
0.00492813
0.0294639
0.0561119
0.0853363
0.117671
0.153745
0.194314
0.240302
0.292864
0.353454
0.423936
0.506722
0.60496
0.722779
0.865579
1.04032
1.25569
1.52172
1.84814
2.23976
2.6837
3.10336
3.31483
-4.30829
-3.58025
-2.81236
-2.18395
-1.69676
-1.33088
-1.05969
-0.857441
-0.704501
-0.587056
-0.495422
-0.422776
-0.364275
-0.316434
-0.276695
-0.24315
-0.214341
-0.189141
-0.166654
-0.146158
-0.127055
-0.108843
-0.0910848
-0.0733929
-0.0554104
-0.0367991
-0.0172267
0.00364568
0.0261759
0.0507545
0.0778212
0.107885
0.141552
0.179556
0.222813
0.272479
0.330049
0.39749
0.477439
0.573496
0.690667
0.836004
1.01953
1.25553
1.5643
1.9728
2.50868
3.19009
4.01476
4.80842
-7.0462
-4.67305
-3.13913
-2.23595
-1.63554
-1.22713
-0.948436
-0.752909
-0.611091
-0.505294
-0.424444
-0.36132
-0.311075
-0.270362
-0.236794
-0.208624
-0.18454
-0.163531
-0.144802
-0.127713
-0.111737
-0.0964306
-0.0814089
-0.0663299
-0.0508795
-0.0347592
-0.0176764
0.000667924
0.0205892
0.0424323
0.0665853
0.0934989
0.123709
0.157871
0.196801
0.24154
0.293448
0.354339
0.426694
0.514001
0.621305
0.756127
0.930008
1.16132
1.48062
1.93679
2.59636
3.5721
5.19439
7.67839
-11.6814
-5.75834
-2.98805
-1.87144
-1.28236
-0.928289
-0.706899
-0.559731
-0.455666
-0.378789
-0.320218
-0.274516
-0.238144
-0.208684
-0.18441
-0.164046
-0.146623
-0.131387
-0.117736
-0.105179
-0.0933097
-0.0817805
-0.0702884
-0.0585619
-0.0463502
-0.0334143
-0.0195192
-0.0044252
0.0121199
0.0303905
0.0506938
0.0733835
0.0988776
0.127682
0.16042
0.197884
0.241096
0.291407
0.35066
0.421439
0.507519
0.614679
0.75229
0.936881
1.20041
1.60434
2.26055
3.4718
6.358
12.4032
)
;

boundaryField
{
    movingWall
    {
        type            zeroGradient;
    }
    fixedWalls
    {
        type            zeroGradient;
    }
    frontAndBack
    {
        type            empty;
    }
}


// ************************************************************************* //
