/*--------------------------------*- C++ -*----------------------------------*\
| =========                 |                                                 |
| \\      /  F ield         | OpenFOAM: The Open Source CFD Toolbox           |
|  \\    /   O peration     | Version:  v2012                                 |
|   \\  /    A nd           | Website:  www.openfoam.com                      |
|    \\/     M anipulation  |                                                 |
\*---------------------------------------------------------------------------*/
FoamFile
{
    version     2.0;
    format      ascii;
    class       surfaceScalarField;
    location    "0.2";
    object      phi;
}
// * * * * * * * * * * * * * * * * * * * * * * * * * * * * * * * * * * * * * //

dimensions      [0 3 -1 0 0 0 0];
oriented        oriented;


internalField   nonuniform List<scalar> 
4900
(
1.17856e-09
-1.18468e-09
2.41633e-09
-1.23768e-09
2.51552e-09
-9.91397e-11
1.03818e-09
1.4773e-09
-2.09601e-09
3.13412e-09
-6.79914e-09
4.70306e-09
-1.29011e-08
6.10188e-09
-2.01943e-08
7.29313e-09
-2.8457e-08
8.26266e-09
-3.74654e-08
9.00842e-09
-4.70006e-08
9.53511e-09
-5.6852e-08
9.8513e-09
-6.682e-08
9.96786e-09
-7.67171e-08
9.89703e-09
-8.6369e-08
9.65188e-09
-9.56151e-08
9.24595e-09
-1.04308e-07
8.69305e-09
-1.12315e-07
8.00714e-09
-1.19518e-07
7.2023e-09
-1.2581e-07
6.29268e-09
-1.31103e-07
5.2926e-09
-1.3532e-07
4.21653e-09
-1.38399e-07
3.07919e-09
-1.40295e-07
1.89563e-09
-1.40976e-07
6.8133e-10
-1.40428e-07
-5.47801e-10
-1.38653e-07
-1.77547e-09
-1.35668e-07
-2.98485e-09
-1.31509e-07
-4.15855e-09
-1.2623e-07
-5.27883e-09
-1.19903e-07
-6.32766e-09
-1.12616e-07
-7.28681e-09
-1.04478e-07
-8.13798e-09
-9.56146e-08
-8.86305e-09
-8.61702e-08
-9.44436e-09
-7.63051e-08
-9.86495e-09
-6.61962e-08
-1.01089e-08
-5.60345e-08
-1.01616e-08
-4.6024e-08
-1.00104e-08
-3.63793e-08
-9.64468e-09
-2.73223e-08
-9.05692e-09
-1.9079e-08
-8.24328e-09
-1.18737e-08
-7.20523e-09
-5.92152e-09
-5.95211e-09
-1.41521e-09
-4.50628e-09
1.49864e-09
-2.91384e-09
2.76358e-09
-1.26494e-09
2.49572e-09
2.67839e-10
1.17405e-09
1.32166e-09
1.17404e-09
1.24912e-09
-2.43376e-09
1.44715e-09
-1.43567e-09
-1.16036e-09
2.50831e-09
-7.37982e-09
7.69671e-09
-1.74612e-08
1.32155e-08
-3.12963e-08
1.85382e-08
-4.856e-08
2.33656e-08
-6.88028e-08
2.7536e-08
-9.15094e-08
3.09692e-08
-1.16134e-07
3.36335e-08
-1.42126e-07
3.55272e-08
-1.68943e-07
3.66677e-08
-1.9606e-07
3.70848e-08
-2.22979e-07
3.68162e-08
-2.49232e-07
3.5905e-08
-2.74384e-07
3.43977e-08
-2.98034e-07
3.23433e-08
-3.19819e-07
2.97922e-08
-3.39413e-07
2.67963e-08
-3.56528e-07
2.3408e-08
-3.70916e-07
1.9681e-08
-3.8237e-07
1.56699e-08
-3.90721e-07
1.14303e-08
-3.95845e-07
7.0194e-09
-3.97659e-07
2.49551e-09
-3.96125e-07
-2.08135e-09
-3.91251e-07
-6.64955e-09
-3.83091e-07
-1.11458e-08
-3.71744e-07
-1.55054e-08
-3.5736e-07
-1.96623e-08
-3.40138e-07
-2.35497e-08
-3.20325e-07
-2.71004e-08
-2.98215e-07
-3.02474e-08
-2.74153e-07
-3.29252e-08
-2.48528e-07
-3.507e-08
-2.21771e-07
-3.66216e-08
-1.94356e-07
-3.75243e-08
-1.66789e-07
-3.77285e-08
-1.39607e-07
-3.71925e-08
-1.13367e-07
-3.58847e-08
-8.86374e-08
-3.37866e-08
-6.59838e-08
-3.08969e-08
-4.59515e-08
-2.72376e-08
-2.90395e-08
-2.28641e-08
-1.56632e-08
-1.78826e-08
-6.09677e-09
-1.24803e-08
-3.83151e-10
-6.97859e-09
1.80323e-09
-1.91856e-09
1.33357e-09
1.7913e-09
2.50761e-09
1.54312e-10
-2.58804e-09
-2.40364e-09
1.12223e-09
-9.3464e-09
9.451e-09
-2.15107e-08
1.98609e-08
-3.91622e-08
3.0867e-08
-6.21547e-08
4.15306e-08
-9.00589e-08
5.12698e-08
-1.22264e-07
5.97407e-08
-1.58047e-07
6.67529e-08
-1.96629e-07
7.22152e-08
-2.37204e-07
7.61022e-08
-2.78969e-07
7.84325e-08
-3.21139e-07
7.92549e-08
-3.62961e-07
7.86384e-08
-4.03723e-07
7.66664e-08
-4.42757e-07
7.3432e-08
-4.79449e-07
6.90351e-08
-5.13237e-07
6.35807e-08
-5.43618e-07
5.71774e-08
-5.70147e-07
4.99369e-08
-5.9244e-07
4.19735e-08
-6.10174e-07
3.3404e-08
-6.23092e-07
2.43482e-08
-6.31001e-07
1.49284e-08
-6.33776e-07
5.27025e-09
-6.3136e-07
-4.49733e-09
-6.23767e-07
-1.42423e-08
-6.11083e-07
-2.38294e-08
-5.93468e-07
-3.31205e-08
-5.71155e-07
-4.19754e-08
-5.44453e-07
-5.02524e-08
-5.13743e-07
-5.78097e-08
-4.79484e-07
-6.45068e-08
-4.42203e-07
-7.02065e-08
-4.02496e-07
-7.47766e-08
-3.61024e-07
-7.80933e-08
-3.18505e-07
-8.00433e-08
-2.75706e-07
-8.05278e-08
-2.33432e-07
-7.94666e-08
-1.92513e-07
-7.68031e-08
-1.53789e-07
-7.25108e-08
-1.18083e-07
-6.66027e-08
-8.61771e-08
-5.91439e-08
-5.87698e-08
-5.02715e-08
-3.64275e-08
-4.02249e-08
-1.9512e-08
-2.93959e-08
-8.0836e-09
-1.8407e-08
-1.78098e-09
-8.22121e-09
3.29415e-10
-3.19117e-10
2.83702e-09
-1.37672e-09
-1.21132e-09
-7.52009e-09
7.26552e-09
-1.9697e-08
2.16279e-08
-3.8548e-08
3.87118e-08
-6.42182e-08
5.65371e-08
-9.64594e-08
7.37718e-08
-1.3473e-07
8.954e-08
-1.7828e-07
1.03291e-07
-2.26227e-07
1.147e-07
-2.77606e-07
1.23594e-07
-3.31413e-07
1.29909e-07
-3.86637e-07
1.33656e-07
-4.42282e-07
1.349e-07
-4.97388e-07
1.33744e-07
-5.51038e-07
1.30317e-07
-6.02374e-07
1.24768e-07
-6.50599e-07
1.1726e-07
-6.94986e-07
1.07967e-07
-7.34878e-07
9.70699e-08
-7.69698e-07
8.47564e-08
-7.98944e-07
7.12197e-08
-8.22198e-07
5.6658e-08
-8.39124e-07
4.12744e-08
-8.49473e-07
2.52773e-08
-8.53083e-07
8.8802e-09
-8.49882e-07
-7.69781e-09
-8.39892e-07
-2.42326e-08
-8.23227e-07
-4.0495e-08
-8.00095e-07
-5.62516e-08
-7.70805e-07
-7.12656e-08
-7.35759e-07
-8.5299e-08
-6.95455e-07
-9.81138e-08
-6.50486e-07
-1.09475e-07
-6.01537e-07
-1.19155e-07
-5.49379e-07
-1.26935e-07
-4.94861e-07
-1.32611e-07
-4.38904e-07
-1.36e-07
-3.8249e-07
-1.36942e-07
-3.26642e-07
-1.35315e-07
-2.72411e-07
-1.31034e-07
-2.20852e-07
-1.2407e-07
-1.72992e-07
-1.14462e-07
-1.29799e-07
-1.02337e-07
-9.21316e-08
-8.79386e-08
-6.0688e-08
-7.16684e-08
-3.59325e-08
-5.41514e-08
-1.80126e-08
-3.6327e-08
-6.66592e-09
-1.95679e-08
-1.12772e-09
-5.85734e-09
1.7093e-09
-3.01826e-09
1.80693e-09
-1.31018e-08
1.7349e-08
-3.09615e-08
3.94876e-08
-5.69062e-08
6.46565e-08
-9.08592e-08
9.04901e-08
-1.32408e-07
1.1532e-07
-1.80868e-07
1.38e-07
-2.35352e-07
1.57776e-07
-2.9483e-07
1.74178e-07
-3.5818e-07
1.86944e-07
-4.24234e-07
1.95963e-07
-4.91811e-07
2.01233e-07
-5.59741e-07
2.02831e-07
-6.26893e-07
2.00895e-07
-6.92181e-07
1.95605e-07
-7.54586e-07
1.87173e-07
-8.13161e-07
1.75834e-07
-8.67036e-07
1.61842e-07
-9.1543e-07
1.45463e-07
-9.57649e-07
1.26976e-07
-9.93096e-07
1.06666e-07
-1.02127e-06
8.48305e-08
-1.04177e-06
6.17719e-08
-1.05429e-06
3.78017e-08
-1.05865e-06
1.32392e-08
-1.05476e-06
-1.15883e-08
-1.04265e-06
-3.63463e-08
-1.02245e-06
-6.06931e-08
-9.94417e-07
-8.42813e-08
-9.58923e-07
-1.06759e-07
-9.16448e-07
-1.27774e-07
-8.67587e-07
-1.46975e-07
-8.13049e-07
-1.64014e-07
-7.53648e-07
-1.78557e-07
-6.903e-07
-1.90283e-07
-6.24013e-07
-1.98898e-07
-5.55878e-07
-2.04135e-07
-4.87052e-07
-2.05769e-07
-4.1874e-07
-2.03627e-07
-3.52175e-07
-1.97599e-07
-2.8859e-07
-1.87655e-07
-2.29183e-07
-1.73869e-07
-1.75083e-07
-1.56438e-07
-1.27295e-07
-1.35726e-07
-8.66541e-08
-1.12309e-07
-5.37599e-08
-8.70457e-08
-2.89116e-08
-6.11753e-08
-1.20486e-08
-3.64309e-08
-2.70623e-09
-1.51997e-08
-9.96961e-10
-4.63689e-09
6.44381e-09
-1.87378e-08
3.14498e-08
-4.24349e-08
6.31847e-08
-7.5638e-08
9.78595e-08
-1.17983e-07
1.32835e-07
-1.68842e-07
1.66179e-07
-2.27356e-07
1.96514e-07
-2.92483e-07
2.22902e-07
-3.63046e-07
2.4474e-07
-4.37779e-07
2.61677e-07
-5.15369e-07
2.73553e-07
-5.94486e-07
2.8035e-07
-6.73816e-07
2.82161e-07
-7.52079e-07
2.79159e-07
-8.28053e-07
2.71579e-07
-9.00582e-07
2.59702e-07
-9.68591e-07
2.43844e-07
-1.0311e-06
2.24346e-07
-1.0872e-06
2.01572e-07
-1.13613e-06
1.75901e-07
-1.17719e-06
1.47728e-07
-1.20982e-06
1.17457e-07
-1.23355e-06
8.55073e-08
-1.24806e-06
5.23069e-08
-1.25311e-06
1.82956e-08
-1.24863e-06
-1.6076e-08
-1.23463e-06
-5.03476e-08
-1.21127e-06
-8.40495e-08
-1.17885e-06
-1.16705e-07
-1.13777e-06
-1.47832e-07
-1.0886e-06
-1.76948e-07
-1.032e-06
-2.03571e-07
-9.68786e-07
-2.27231e-07
-8.99872e-07
-2.4747e-07
-8.26299e-07
-2.63857e-07
-7.49207e-07
-2.75989e-07
-6.69829e-07
-2.83513e-07
-5.89469e-07
-2.86128e-07
-5.09489e-07
-2.83607e-07
-4.31276e-07
-2.75811e-07
-3.5622e-07
-2.62712e-07
-2.85673e-07
-2.44416e-07
-2.20914e-07
-2.21198e-07
-1.63099e-07
-1.93541e-07
-1.13218e-07
-1.6219e-07
-7.20405e-08
-1.28224e-07
-4.00691e-08
-9.31466e-08
-1.75109e-08
-5.89891e-08
-4.26979e-09
-2.84408e-08
-5.26679e-09
-6.18094e-09
1.26248e-08
-2.42339e-08
4.95027e-08
-5.37481e-08
9.26989e-08
-9.42151e-08
1.38326e-07
-1.44949e-07
1.83569e-07
-2.05069e-07
2.26299e-07
-2.73512e-07
2.64958e-07
-3.49064e-07
2.98454e-07
-4.30393e-07
3.2607e-07
-5.1609e-07
3.47374e-07
-6.04703e-07
3.62166e-07
-6.9477e-07
3.70417e-07
-7.84847e-07
3.72238e-07
-8.7353e-07
3.67842e-07
-9.59475e-07
3.57524e-07
-1.04141e-06
3.4164e-07
-1.11816e-06
3.20592e-07
-1.18864e-06
2.94821e-07
-1.25186e-06
2.64794e-07
-1.30696e-06
2.31003e-07
-1.35319e-06
1.93958e-07
-1.38992e-06
1.54188e-07
-1.41665e-06
1.12235e-07
-1.433e-06
6.86575e-08
-1.43873e-06
2.4028e-08
-1.43374e-06
-2.10678e-08
-1.41806e-06
-6.60308e-08
-1.39186e-06
-1.10251e-07
-1.35545e-06
-1.53109e-07
-1.3093e-06
-1.9398e-07
-1.25402e-06
-2.32237e-07
-1.19033e-06
-2.67259e-07
-1.11912e-06
-2.98435e-07
-1.04142e-06
-3.25178e-07
-9.58345e-07
-3.46928e-07
-8.71163e-07
-3.63172e-07
-7.81222e-07
-3.73454e-07
-6.89958e-07
-3.77392e-07
-5.98866e-07
-3.74699e-07
-5.09475e-07
-3.65202e-07
-4.23318e-07
-3.48869e-07
-3.41896e-07
-3.25838e-07
-2.66641e-07
-2.96453e-07
-1.98871e-07
-2.61311e-07
-1.39751e-07
-2.2131e-07
-9.02503e-08
-1.77724e-07
-5.11154e-08
-1.32281e-07
-2.28559e-08
-8.72486e-08
-5.76473e-09
-4.5532e-08
-1.10316e-08
-7.63841e-09
2.02632e-08
-2.95176e-08
7.13819e-08
-6.4739e-08
1.2792e-07
-1.12384e-07
1.85972e-07
-1.71432e-07
2.42617e-07
-2.40726e-07
2.95594e-07
-3.18979e-07
3.43211e-07
-4.04784e-07
3.8426e-07
-4.96645e-07
4.1793e-07
-5.93003e-07
4.43732e-07
-6.92271e-07
4.61434e-07
-7.92861e-07
4.71007e-07
-8.93211e-07
4.72587e-07
-9.91803e-07
4.66435e-07
-1.08719e-06
4.5291e-07
-1.178e-06
4.32452e-07
-1.26297e-06
4.05558e-07
-1.34092e-06
3.72772e-07
-1.4108e-06
3.34677e-07
-1.47168e-06
2.91883e-07
-1.52275e-06
2.45026e-07
-1.56333e-06
1.94767e-07
-1.59288e-06
1.41782e-07
-1.61099e-06
8.67685e-08
-1.6174e-06
3.04414e-08
-1.612e-06
-2.6468e-08
-1.59482e-06
-8.32122e-08
-1.56604e-06
-1.3903e-07
-1.526e-06
-1.9315e-07
-1.47519e-06
-2.44792e-07
-1.41425e-06
-2.93177e-07
-1.34397e-06
-3.3753e-07
-1.26532e-06
-3.77092e-07
-1.17936e-06
-4.11131e-07
-1.08734e-06
-4.38953e-07
-9.90589e-07
-4.59921e-07
-8.90575e-07
-4.73468e-07
-7.88846e-07
-4.79121e-07
-6.87021e-07
-4.76524e-07
-5.86761e-07
-4.65462e-07
-4.8974e-07
-4.4589e-07
-3.97609e-07
-4.17969e-07
-3.1196e-07
-3.82102e-07
-2.34288e-07
-3.38983e-07
-1.65953e-07
-2.89645e-07
-1.08151e-07
-2.35526e-07
-6.18954e-08
-1.78537e-07
-2.8013e-08
-1.21131e-07
-7.1787e-09
-6.63664e-08
-1.82103e-08
-9.01516e-09
2.92784e-08
-3.45804e-08
9.69472e-08
-7.53647e-08
1.68704e-07
-1.30061e-07
2.40668e-07
-1.97311e-07
3.09867e-07
-2.75674e-07
3.73957e-07
-3.63621e-07
4.31157e-07
-4.59539e-07
4.80178e-07
-5.61754e-07
5.20145e-07
-6.68554e-07
5.50532e-07
-7.78213e-07
5.71093e-07
-8.89019e-07
5.81813e-07
-9.99296e-07
5.82864e-07
-1.10743e-06
5.74564e-07
-1.21186e-06
5.57348e-07
-1.31116e-06
5.31744e-07
-1.40395e-06
4.98354e-07
-1.48901e-06
4.57833e-07
-1.56522e-06
4.10884e-07
-1.63158e-06
3.58247e-07
-1.68725e-06
3.00691e-07
-1.73149e-06
2.39013e-07
-1.76375e-06
1.74034e-07
-1.78357e-06
1.06596e-07
-1.7907e-06
3.75642e-08
-1.78499e-06
-3.21766e-08
-1.76648e-06
-1.01723e-07
-1.73535e-06
-1.70154e-07
-1.69197e-06
-2.36537e-07
-1.63683e-06
-2.9993e-07
-1.57061e-06
-3.5939e-07
-1.49416e-06
-4.13981e-07
-1.40847e-06
-4.62784e-07
-1.31469e-06
-5.04913e-07
-1.21412e-06
-5.39528e-07
-1.10818e-06
-5.65856e-07
-9.98437e-07
-5.83211e-07
-8.86542e-07
-5.91016e-07
-7.74231e-07
-5.88836e-07
-6.63294e-07
-5.76399e-07
-5.55547e-07
-5.53637e-07
-4.52797e-07
-5.20719e-07
-3.56808e-07
-4.78092e-07
-2.69264e-07
-4.26526e-07
-1.91743e-07
-3.67166e-07
-1.25684e-07
-3.01584e-07
-7.23802e-08
-2.31841e-07
-3.29795e-08
-1.60532e-07
-8.51886e-09
-9.0827e-08
-2.67292e-08
-1.03241e-08
3.96027e-08
-3.94452e-08
1.26068e-07
-8.56473e-08
2.14907e-07
-1.47258e-07
3.02279e-07
-2.22591e-07
3.85199e-07
-3.09916e-07
4.61282e-07
-4.0745e-07
5.28691e-07
-5.13366e-07
5.86093e-07
-6.25801e-07
6.32581e-07
-7.42881e-07
6.67612e-07
-8.6274e-07
6.90951e-07
-9.83539e-07
7.02613e-07
-1.10349e-06
7.02819e-07
-1.22089e-06
6.91957e-07
-1.33409e-06
6.7055e-07
-1.44157e-06
6.39224e-07
-1.54191e-06
5.98691e-07
-1.6338e-06
5.49729e-07
-1.71609e-06
4.93169e-07
-1.78772e-06
4.29883e-07
-1.84781e-06
3.60782e-07
-1.8956e-06
2.86805e-07
-1.93049e-06
2.08923e-07
-1.95203e-06
1.2813e-07
-1.95991e-06
4.54449e-08
-1.954e-06
-3.80873e-08
-1.93432e-06
-1.21401e-07
-1.90106e-06
-2.03411e-07
-1.85458e-06
-2.83016e-07
-1.79541e-06
-3.59105e-07
-1.72424e-06
-4.30562e-07
-1.64194e-06
-4.96282e-07
-1.54954e-06
-5.55177e-07
-1.44826e-06
-6.06197e-07
-1.33944e-06
-6.48345e-07
-1.2246e-06
-6.807e-07
-1.10537e-06
-7.02442e-07
-9.83503e-07
-7.1288e-07
-8.60857e-07
-7.11481e-07
-7.39349e-07
-6.97906e-07
-6.20941e-07
-6.72045e-07
-5.07603e-07
-6.34057e-07
-4.01283e-07
-5.84412e-07
-3.03872e-07
-5.23937e-07
-2.17177e-07
-4.53861e-07
-1.42897e-07
-3.75864e-07
-8.26123e-08
-2.92127e-07
-3.77877e-08
-2.05356e-07
-9.80066e-09
-1.18814e-07
-3.65299e-08
-1.15805e-08
5.11833e-08
-4.41493e-08
1.58637e-07
-9.56427e-08
2.664e-07
-1.64046e-07
3.70682e-07
-2.47351e-07
4.68505e-07
-3.43539e-07
5.57469e-07
-4.50569e-07
6.35722e-07
-5.6639e-07
7.01913e-07
-6.88942e-07
7.55133e-07
-8.16183e-07
7.94853e-07
-9.46099e-07
8.20867e-07
-1.07673e-06
8.33241e-07
-1.20617e-06
8.32265e-07
-1.33263e-06
8.18411e-07
-1.45438e-06
7.923e-07
-1.56982e-06
7.5467e-07
-1.67749e-06
7.06353e-07
-1.77601e-06
6.48256e-07
-1.86419e-06
5.81345e-07
-1.94094e-06
5.06633e-07
-2.00534e-06
4.25177e-07
-2.05659e-06
3.38064e-07
-2.09409e-06
2.46417e-07
-2.11734e-06
1.51386e-07
-2.12605e-06
5.41493e-08
-2.12005e-06
-4.40858e-08
-2.09936e-06
-1.42088e-07
-2.06417e-06
-2.38602e-07
-2.01484e-06
-3.32353e-07
-1.95189e-06
-4.22055e-07
-1.87603e-06
-5.06416e-07
-1.78816e-06
-5.8415e-07
-1.68935e-06
-6.53993e-07
-1.58083e-06
-7.14719e-07
-1.46401e-06
-7.65163e-07
-1.34046e-06
-8.04244e-07
-1.21191e-06
-8.30992e-07
-1.08021e-06
-8.44585e-07
-9.47313e-07
-8.44378e-07
-8.15277e-07
-8.29942e-07
-6.86216e-07
-8.01107e-07
-5.62272e-07
-7.58e-07
-4.4559e-07
-7.01094e-07
-3.3828e-07
-6.31247e-07
-2.42394e-07
-5.49747e-07
-1.59901e-07
-4.58358e-07
-9.26726e-08
-3.59355e-07
-4.24869e-08
-2.55542e-07
-1.10426e-08
-1.50258e-07
-4.75726e-08
-1.27994e-08
6.39827e-08
-4.8735e-08
1.94572e-07
-1.05422e-07
3.23087e-07
-1.80519e-07
4.4578e-07
-2.71708e-07
5.59694e-07
-3.7668e-07
6.62441e-07
-4.93135e-07
7.52177e-07
-6.18787e-07
8.27566e-07
-7.51378e-07
8.87724e-07
-8.88687e-07
9.32163e-07
-1.02855e-06
9.60733e-07
-1.16888e-06
9.73572e-07
-1.30768e-06
9.71058e-07
-1.44303e-06
9.53765e-07
-1.57316e-06
9.22427e-07
-1.69639e-06
8.77906e-07
-1.81121e-06
8.21166e-07
-1.9162e-06
7.5325e-07
-2.01012e-06
6.75268e-07
-2.09187e-06
5.8838e-07
-2.16048e-06
4.9379e-07
-2.21516e-06
3.92741e-07
-2.25525e-06
2.86508e-07
-2.28026e-06
1.764e-07
-2.28987e-06
6.3758e-08
-2.28391e-06
-5.00485e-08
-2.26238e-06
-1.63619e-07
-2.22545e-06
-2.75527e-07
-2.17349e-06
-3.84321e-07
-2.10701e-06
-4.88535e-07
-2.02673e-06
-5.86694e-07
-1.93355e-06
-6.77326e-07
-1.82856e-06
-7.58981e-07
-1.71303e-06
-8.30248e-07
-1.58842e-06
-8.8978e-07
-1.45634e-06
-9.36319e-07
-1.3186e-06
-9.68733e-07
-1.17714e-06
-9.86047e-07
-1.03403e-06
-9.87484e-07
-8.91468e-07
-9.72506e-07
-7.51718e-07
-9.40856e-07
-6.1711e-07
-8.92609e-07
-4.89993e-07
-8.28211e-07
-3.72714e-07
-7.48526e-07
-2.67579e-07
-6.54881e-07
-1.76838e-07
-5.49099e-07
-1.02661e-07
-4.33532e-07
-4.71338e-08
-3.11069e-07
-1.22639e-08
-1.85128e-07
-5.98366e-08
-1.39949e-08
7.79777e-08
-5.32449e-08
2.33822e-07
-1.1506e-07
3.84902e-07
-1.96786e-07
5.27506e-07
-2.95798e-07
6.58706e-07
-4.09499e-07
7.76142e-07
-5.35325e-07
8.78003e-07
-6.70755e-07
9.62996e-07
-8.13322e-07
1.03029e-06
-9.60626e-07
1.07947e-06
-1.11035e-06
1.11046e-06
-1.26027e-06
1.1235e-06
-1.40829e-06
1.11907e-06
-1.5524e-06
1.09788e-06
-1.69075e-06
1.06078e-06
-1.82162e-06
1.00878e-06
-1.94343e-06
9.42976e-07
-2.05475e-06
8.64568e-07
-2.1543e-06
7.74812e-07
-2.24094e-06
6.75021e-07
-2.3137e-06
5.66551e-07
-2.37176e-06
4.50801e-07
-2.41445e-06
3.29202e-07
-2.44128e-06
2.03223e-07
-2.45188e-06
7.43631e-08
-2.44609e-06
-5.58416e-08
-2.42388e-06
-1.85823e-07
-2.38543e-06
-3.13982e-07
-2.33106e-06
-4.38689e-07
-2.2613e-06
-5.58296e-07
-2.17685e-06
-6.71139e-07
-2.07863e-06
-7.75554e-07
-1.96771e-06
-8.69898e-07
-1.8454e-06
-9.52561e-07
-1.71317e-06
-1.022e-06
-1.57272e-06
-1.07677e-06
-1.4259e-06
-1.11556e-06
-1.27474e-06
-1.1372e-06
-1.12144e-06
-1.14079e-06
-9.68321e-07
-1.12563e-06
-8.17818e-07
-1.09136e-06
-6.72451e-07
-1.03798e-06
-5.34791e-07
-9.65871e-07
-4.07429e-07
-8.75889e-07
-2.92942e-07
-7.69368e-07
-1.93869e-07
-6.48171e-07
-1.12685e-07
-5.14716e-07
-5.17865e-08
-3.71968e-07
-1.3483e-08
-2.23432e-07
-7.33196e-08
-1.51799e-08
9.31577e-08
-5.77194e-08
2.76362e-07
-1.24632e-07
4.51814e-07
-2.12954e-07
6.15829e-07
-3.19758e-07
7.6551e-07
-4.42159e-07
8.98542e-07
-5.77325e-07
1.01317e-06
-7.22494e-07
1.10817e-06
-8.74986e-07
1.18278e-06
-1.03222e-06
1.2367e-06
-1.19171e-06
1.26995e-06
-1.35112e-06
1.28291e-06
-1.50823e-06
1.27618e-06
-1.66096e-06
1.25061e-06
-1.80739e-06
1.20721e-06
-1.94574e-06
1.14713e-06
-2.07439e-06
1.07163e-06
-2.19189e-06
9.82067e-07
-2.29693e-06
8.79853e-07
-2.38837e-06
7.66456e-07
-2.46521e-06
6.43392e-07
-2.52662e-06
5.12215e-07
-2.57193e-06
3.74512e-07
-2.60062e-06
2.31909e-07
-2.61232e-06
8.60654e-08
-2.60684e-06
-6.13209e-08
-2.58415e-06
-2.08516e-07
-2.54438e-06
-3.53747e-07
-2.48786e-06
-4.95211e-07
-2.41509e-06
-6.31071e-07
-2.32675e-06
-7.59475e-07
-2.22374e-06
-8.78561e-07
-2.10716e-06
-9.86481e-07
-1.9783e-06
-1.08142e-06
-1.83868e-06
-1.16163e-06
-1.69001e-06
-1.22544e-06
-1.53422e-06
-1.27134e-06
-1.37343e-06
-1.29799e-06
-1.20994e-06
-1.30427e-06
-1.04623e-06
-1.28934e-06
-8.84885e-07
-1.2527e-06
-7.28639e-07
-1.19422e-06
-5.80291e-07
-1.11422e-06
-4.42691e-07
-1.01349e-06
-3.18699e-07
-8.9336e-07
-2.11157e-07
-7.55713e-07
-1.22854e-07
-6.03018e-07
-5.65028e-08
-4.38319e-07
-1.47177e-08
-2.65217e-07
-8.80374e-08
-1.63659e-08
1.09524e-07
-6.2196e-08
3.22192e-07
-1.34207e-07
5.23824e-07
-2.29127e-07
7.10749e-07
-3.43725e-07
8.80107e-07
-4.7482e-07
1.02964e-06
-6.19312e-07
1.15766e-06
-7.74192e-07
1.26304e-06
-9.36561e-07
1.34515e-06
-1.10365e-06
1.40378e-06
-1.27282e-06
1.43913e-06
-1.4416e-06
1.45168e-06
-1.60766e-06
1.44224e-06
-1.76885e-06
1.4118e-06
-1.92318e-06
1.36153e-06
-2.06883e-06
1.29278e-06
-2.20415e-06
1.20695e-06
-2.32767e-06
1.10558e-06
-2.43806e-06
9.90244e-07
-2.53417e-06
8.6257e-07
-2.61501e-06
7.24233e-07
-2.67974e-06
5.76943e-07
-2.72767e-06
4.22444e-07
-2.75828e-06
2.62515e-07
-2.77118e-06
9.89711e-08
-2.76617e-06
-6.63316e-08
-2.74319e-06
-2.31496e-07
-2.70236e-06
-3.94584e-07
-2.64395e-06
-5.53613e-07
-2.56846e-06
-7.06565e-07
-2.47654e-06
-8.51394e-07
-2.36906e-06
-9.86038e-07
-2.24711e-06
-1.10843e-06
-2.11198e-06
-1.21655e-06
-1.96519e-06
-1.30841e-06
-1.8085e-06
-1.38213e-06
-1.64389e-06
-1.43596e-06
-1.47355e-06
-1.46833e-06
-1.2999e-06
-1.47792e-06
-1.12554e-06
-1.4637e-06
-9.5327e-07
-1.42497e-06
-7.86007e-07
-1.36148e-06
-6.26797e-07
-1.27343e-06
-4.78764e-07
-1.16152e-06
-3.45066e-07
-1.02706e-06
-2.28864e-07
-8.71916e-07
-1.33274e-07
-6.98608e-07
-6.13378e-08
-5.10256e-07
-1.59846e-08
-3.1057e-07
-1.04022e-07
-1.7563e-08
1.27087e-07
-6.67085e-08
3.71337e-07
-1.4385e-07
6.00966e-07
-2.45403e-07
8.12302e-07
-3.67822e-07
1.00253e-06
-5.07631e-07
1.16945e-06
-6.61449e-07
1.31148e-06
-8.26016e-07
1.42761e-06
-9.98211e-07
1.51735e-06
-1.17507e-06
1.58064e-06
-1.35381e-06
1.61786e-06
-1.53181e-06
1.62968e-06
-1.70665e-06
1.61708e-06
-1.87609e-06
1.58125e-06
-2.03811e-06
1.52355e-06
-2.19084e-06
1.44551e-06
-2.33261e-06
1.34873e-06
-2.46194e-06
1.23491e-06
-2.5775e-06
1.10581e-06
-2.67815e-06
9.63212e-07
-2.76288e-06
8.08964e-07
-2.83086e-06
6.44925e-07
-2.8814e-06
4.72991e-07
-2.91398e-06
2.9509e-07
-2.9282e-06
1.13187e-07
-2.92382e-06
-7.07094e-08
-2.90077e-06
-2.54547e-07
-2.85913e-06
-4.36224e-07
-2.79915e-06
-6.13589e-07
-2.72127e-06
-7.84441e-07
-2.62613e-06
-9.46542e-07
-2.51454e-06
-1.09762e-06
-2.38757e-06
-1.23541e-06
-2.2465e-06
-1.35763e-06
-2.09284e-06
-1.46207e-06
-1.92838e-06
-1.5466e-06
-1.75512e-06
-1.60921e-06
-1.57536e-06
-1.6481e-06
-1.39159e-06
-1.66169e-06
-1.20658e-06
-1.64871e-06
-1.02329e-06
-1.60827e-06
-8.44864e-07
-1.53991e-06
-6.74597e-07
-1.4437e-06
-5.15901e-07
-1.32022e-06
-3.72252e-07
-1.17071e-06
-2.47146e-07
-9.97022e-07
-1.44048e-07
-8.01706e-07
-6.63444e-08
-5.8796e-07
-1.72991e-08
-3.59615e-07
-1.21321e-07
-1.87805e-08
1.45867e-07
-7.12881e-08
4.23845e-07
-1.53621e-07
6.83298e-07
-2.61869e-07
9.20551e-07
-3.92165e-07
1.13282e-06
-5.40725e-07
1.31801e-06
-7.0388e-07
1.47463e-06
-8.7811e-07
1.60184e-06
-1.06007e-06
1.6993e-06
-1.24659e-06
1.76717e-06
-1.43474e-06
1.80601e-06
-1.62177e-06
1.81671e-06
-1.80516e-06
1.80047e-06
-1.98262e-06
1.7587e-06
-2.15205e-06
1.69298e-06
-2.31158e-06
1.60503e-06
-2.45952e-06
1.49667e-06
-2.5944e-06
1.36978e-06
-2.71489e-06
1.2263e-06
-2.81986e-06
1.06818e-06
-2.90833e-06
8.97433e-07
-2.97947e-06
7.16064e-07
-3.0326e-06
5.26119e-07
-3.06717e-06
3.29667e-07
-3.0828e-06
1.28817e-07
-3.07923e-06
-7.42817e-08
-3.05635e-06
-2.7743e-07
-3.0142e-06
-4.78372e-07
-2.953e-06
-6.7479e-07
-2.87313e-06
-8.6431e-07
-2.77517e-06
-1.0445e-06
-2.65991e-06
-1.21289e-06
-2.52835e-06
-1.36696e-06
-2.38175e-06
-1.50423e-06
-2.2216e-06
-1.62222e-06
-2.04968e-06
-1.71851e-06
-1.86804e-06
-1.79085e-06
-1.67903e-06
-1.83711e-06
-1.48525e-06
-1.85546e-06
-1.28961e-06
-1.84435e-06
-1.09523e-06
-1.80265e-06
-9.05489e-07
-1.72965e-06
-7.23956e-07
-1.62523e-06
-5.54341e-07
-1.48983e-06
-4.00455e-07
-1.32459e-06
-2.66153e-07
-1.13132e-06
-1.55273e-07
-9.12587e-07
-7.15727e-08
-6.7166e-07
-1.86762e-08
-4.12512e-07
-1.39997e-07
-2.00267e-08
1.65894e-07
-7.59633e-08
4.79781e-07
-1.63574e-07
7.70909e-07
-2.78609e-07
1.03558e-06
-4.1686e-07
1.27107e-06
-5.74222e-07
1.47537e-06
-7.46727e-07
1.64714e-06
-9.30586e-07
1.7857e-06
-1.12222e-06
1.89093e-06
-1.31827e-06
1.96322e-06
-1.51563e-06
2.00337e-06
-1.71144e-06
2.01252e-06
-1.90309e-06
1.99212e-06
-2.08822e-06
1.94383e-06
-2.26471e-06
1.86947e-06
-2.43067e-06
1.771e-06
-2.58442e-06
1.65043e-06
-2.7245e-06
1.50986e-06
-2.84961e-06
1.35141e-06
-2.95864e-06
1.17722e-06
-3.05064e-06
9.89429e-07
-3.12479e-06
7.90216e-07
-3.18043e-06
5.81758e-07
-3.21702e-06
3.66259e-07
-3.23416e-06
1.45956e-07
-3.23157e-06
-7.68707e-08
-3.20912e-06
-2.99886e-07
-3.1668e-06
-5.20691e-07
-3.10477e-06
-7.36816e-07
-3.02336e-06
-9.45716e-07
-2.92309e-06
-1.14477e-06
-2.80466e-06
-1.33131e-06
-2.66904e-06
-1.50259e-06
-2.5174e-06
-1.65587e-06
-2.35123e-06
-1.78839e-06
-2.17228e-06
-1.89746e-06
-1.98262e-06
-1.98051e-06
-1.78463e-06
-2.0351e-06
-1.58101e-06
-2.05908e-06
-1.37479e-06
-2.05057e-06
-1.1693e-06
-2.00814e-06
-9.68123e-07
-1.93082e-06
-7.75114e-07
-1.81824e-06
-5.94304e-07
-1.67065e-06
-4.29861e-07
-1.48903e-06
-2.86027e-07
-1.27516e-06
-1.67042e-07
-1.03157e-06
-7.70708e-08
-7.61631e-07
-2.01298e-08
-4.69452e-07
-1.60127e-07
-2.13097e-08
1.87204e-07
-8.07615e-08
5.39233e-07
-1.73763e-07
8.63911e-07
-2.95699e-07
1.15752e-06
-4.42004e-07
1.41738e-06
-6.0823e-07
1.64159e-06
-7.90095e-07
1.829e-06
-9.83532e-07
1.97914e-06
-1.18472e-06
2.09212e-06
-1.3901e-06
2.1686e-06
-1.59641e-06
2.20967e-06
-1.80066e-06
2.21678e-06
-2.00018e-06
2.19164e-06
-2.19256e-06
2.13621e-06
-2.37565e-06
2.05257e-06
-2.54758e-06
1.94292e-06
-2.70667e-06
1.80953e-06
-2.85151e-06
1.6547e-06
-2.98083e-06
1.48073e-06
-3.09357e-06
1.28995e-06
-3.18881e-06
1.08466e-06
-3.26576e-06
8.67173e-07
-3.32379e-06
6.39791e-07
-3.36238e-06
4.04842e-07
-3.3811e-06
1.64681e-07
-3.37968e-06
-7.82965e-08
-3.35793e-06
-3.21637e-07
-3.31581e-06
-5.62812e-07
-3.25341e-06
-7.99212e-07
-3.17099e-06
-1.02813e-06
-3.06898e-06
-1.24678e-06
-2.94802e-06
-1.45228e-06
-2.80896e-06
-1.64165e-06
-2.65293e-06
-1.8119e-06
-2.48133e-06
-1.95998e-06
-2.2959e-06
-2.0829e-06
-2.09867e-06
-2.17773e-06
-1.89208e-06
-2.2417e-06
-1.67889e-06
-2.27227e-06
-1.46225e-06
-2.26721e-06
-1.24566e-06
-2.22473e-06
-1.03296e-06
-2.14352e-06
-8.28279e-07
-2.02292e-06
-6.35988e-07
-1.86294e-06
-4.60642e-07
-1.66438e-06
-3.06902e-07
-1.4289e-06
-1.79446e-07
-1.15903e-06
-8.28853e-08
-8.58191e-07
-2.16736e-08
-5.30664e-07
-1.81801e-07
-2.26373e-08
2.09841e-07
-8.57097e-08
6.02305e-07
-1.84239e-07
9.6244e-07
-3.13214e-07
1.2865e-06
-4.67687e-07
1.57185e-06
-6.42844e-07
1.81675e-06
-8.34072e-07
2.02023e-06
-1.03701e-06
2.18207e-06
-1.24758e-06
2.30269e-06
-1.46203e-06
2.38305e-06
-1.67693e-06
2.42458e-06
-1.88921e-06
2.42906e-06
-2.09611e-06
2.39854e-06
-2.29518e-06
2.33528e-06
-2.48429e-06
2.24168e-06
-2.66158e-06
2.1202e-06
-2.82542e-06
1.97338e-06
-2.97445e-06
1.80372e-06
-3.10746e-06
1.61374e-06
-3.22344e-06
1.40593e-06
-3.32153e-06
1.18276e-06
-3.401e-06
9.46647e-07
-3.46125e-06
7.00036e-07
-3.50176e-06
4.45352e-07
-3.52213e-06
1.85048e-07
-3.52204e-06
-7.83817e-08
-3.50129e-06
-3.42383e-07
-3.45979e-06
-6.04319e-07
-3.39754e-06
-8.61457e-07
-3.31472e-06
-1.11095e-06
-3.21166e-06
-1.34984e-06
-3.0889e-06
-1.57504e-06
-2.94717e-06
-1.78337e-06
-2.78752e-06
-1.97155e-06
-2.61124e-06
-2.13625e-06
-2.42001e-06
-2.27413e-06
-2.21585e-06
-2.3819e-06
-2.00116e-06
-2.45639e-06
-1.77878e-06
-2.49464e-06
-1.55198e-06
-2.49402e-06
-1.32441e-06
-2.4523e-06
-1.10015e-06
-2.36778e-06
-8.83623e-07
-2.23944e-06
-6.79571e-07
-2.06699e-06
-4.92961e-07
-1.85099e-06
-3.28906e-07
-1.59295e-06
-1.9257e-07
-1.29536e-06
-8.90617e-08
-9.617e-07
-2.33212e-08
-5.96405e-07
-2.05122e-07
-2.40179e-08
2.33859e-07
-9.08358e-08
6.69123e-07
-1.95053e-07
1.06666e-06
-3.31231e-07
1.42267e-06
-4.94001e-07
1.73462e-06
-6.78157e-07
2.00091e-06
-8.78728e-07
2.2208e-06
-1.09104e-06
2.39438e-06
-1.31077e-06
2.52241e-06
-1.53394e-06
2.60623e-06
-1.757e-06
2.64764e-06
-1.97675e-06
2.64881e-06
-2.19039e-06
2.61218e-06
-2.39546e-06
2.54035e-06
-2.58985e-06
2.43607e-06
-2.77174e-06
2.30209e-06
-2.93959e-06
2.14122e-06
-3.09208e-06
1.95621e-06
-3.22811e-06
1.74977e-06
-3.34675e-06
1.52457e-06
-3.44721e-06
1.28321e-06
-3.52882e-06
1.02826e-06
-3.59102e-06
7.62236e-07
-3.63333e-06
4.87667e-07
-3.65536e-06
2.07079e-07
-3.65679e-06
-7.69572e-08
-3.63736e-06
-3.61811e-07
-3.59692e-06
-6.4476e-07
-3.53541e-06
-9.22968e-07
-3.45289e-06
-1.19347e-06
-3.34958e-06
-1.45315e-06
-3.22589e-06
-1.69874e-06
-3.08242e-06
-1.92684e-06
-2.92008e-06
-2.1339e-06
-2.74005e-06
-2.31628e-06
-2.54391e-06
-2.47028e-06
-2.33359e-06
-2.59222e-06
-2.11149e-06
-2.67848e-06
-1.88048e-06
-2.72566e-06
-1.64388e-06
-2.73061e-06
-1.40555e-06
-2.69063e-06
-1.16977e-06
-2.60356e-06
-9.41283e-07
-2.46793e-06
-7.2521e-07
-2.28306e-06
-5.26965e-07
-2.04924e-06
-3.52162e-07
-1.76776e-06
-2.06502e-07
-1.44102e-06
-9.5646e-08
-1.07256e-06
-2.50864e-08
-6.66964e-07
-2.30209e-07
-2.54605e-08
2.5932e-07
-9.61709e-08
7.39834e-07
-2.06265e-07
1.17675e-06
-3.49831e-07
1.56624e-06
-5.21041e-07
1.90583e-06
-7.14258e-07
2.19413e-06
-9.24129e-07
2.43067e-06
-1.14565e-06
2.6159e-06
-1.37422e-06
2.75098e-06
-1.60568e-06
2.83769e-06
-1.8363e-06
2.87827e-06
-2.06283e-06
2.87534e-06
-2.28242e-06
2.83176e-06
-2.49262e-06
2.75056e-06
-2.69137e-06
2.63482e-06
-2.87693e-06
2.48765e-06
-3.04785e-06
2.31214e-06
-3.20292e-06
2.11128e-06
-3.34114e-06
1.888e-06
-3.46169e-06
1.64512e-06
-3.56389e-06
1.38541e-06
-3.64714e-06
1.11151e-06
-3.71094e-06
8.26044e-07
-3.75488e-06
5.31598e-07
-3.77855e-06
2.30755e-07
-3.78164e-06
-7.38692e-08
-3.76386e-06
-3.79593e-07
-3.72498e-06
-6.83636e-07
-3.66486e-06
-9.83088e-07
-3.58344e-06
-1.27488e-06
-3.48081e-06
-1.55578e-06
-3.35721e-06
-1.82234e-06
-3.2131e-06
-2.07095e-06
-3.0492e-06
-2.2978e-06
-2.86655e-06
-2.49893e-06
-2.66658e-06
-2.67026e-06
-2.45111e-06
-2.80768e-06
-2.2225e-06
-2.9071e-06
-1.98357e-06
-2.96458e-06
-1.73775e-06
-2.97643e-06
-1.489e-06
-2.93939e-06
-1.24185e-06
-2.85071e-06
-1.00135e-06
-2.70842e-06
-7.73037e-07
-2.51138e-06
-5.62795e-07
-2.25948e-06
-3.76793e-07
-1.95376e-06
-2.21328e-07
-1.59649e-06
-1.02685e-07
-1.1912e-06
-2.69834e-08
-7.42666e-07
-2.57192e-07
-2.69759e-08
2.86296e-07
-1.01751e-07
8.14609e-07
-2.17941e-07
1.29294e-06
-3.69106e-07
1.7174e-06
-5.4891e-07
2.08564e-06
-7.51243e-07
2.39646e-06
-9.70333e-07
2.64976e-06
-1.20082e-06
2.84639e-06
-1.43784e-06
2.988e-06
-1.677e-06
3.07685e-06
-1.91446e-06
3.11573e-06
-2.14689e-06
3.10777e-06
-2.37143e-06
3.0563e-06
-2.58569e-06
2.96481e-06
-2.78767e-06
2.8368e-06
-2.97575e-06
2.67573e-06
-3.1486e-06
2.48499e-06
-3.30515e-06
2.26783e-06
-3.44455e-06
2.0274e-06
-3.56611e-06
1.76668e-06
-3.66926e-06
1.48855e-06
-3.75353e-06
1.19577e-06
-3.81848e-06
8.91002e-07
-3.86376e-06
5.76877e-07
-3.88901e-06
2.56003e-07
-3.89389e-06
-6.89879e-08
-3.87809e-06
-3.95395e-07
-3.84131e-06
-7.20413e-07
-3.78331e-06
-1.04109e-06
-3.7039e-06
-1.35429e-06
-3.60301e-06
-1.65667e-06
-3.48069e-06
-1.94466e-06
-3.33722e-06
-2.21442e-06
-3.17311e-06
-2.46191e-06
-2.98921e-06
-2.68283e-06
-2.78673e-06
-2.87273e-06
-2.56738e-06
-3.02703e-06
-2.33337e-06
-3.14111e-06
-2.0875e-06
-3.21045e-06
-1.83321e-06
-3.23073e-06
-1.57457e-06
-3.19802e-06
-1.31634e-06
-3.10895e-06
-1.06389e-06
-2.96087e-06
-8.23162e-07
-2.7521e-06
-6.00581e-07
-2.48206e-06
-4.02916e-07
-2.15142e-06
-2.37136e-07
-1.76227e-06
-1.10228e-07
-1.31811e-06
-2.90277e-08
-8.23867e-07
-2.8622e-07
-2.8577e-08
3.14873e-07
-1.07619e-07
8.9365e-07
-2.30159e-07
1.41548e-06
-3.89165e-07
1.87641e-06
-5.77729e-07
2.2742e-06
-7.89218e-07
2.60795e-06
-1.0174e-06
2.87794e-06
-1.25654e-06
3.08553e-06
-1.50147e-06
3.23292e-06
-1.74761e-06
3.32299e-06
-1.99099e-06
3.35912e-06
-2.22824e-06
3.34501e-06
-2.45652e-06
3.28458e-06
-2.67352e-06
3.18181e-06
-2.87735e-06
3.04064e-06