/*--------------------------------*- C++ -*----------------------------------*\
| =========                 |                                                 |
| \\      /  F ield         | OpenFOAM: The Open Source CFD Toolbox           |
|  \\    /   O peration     | Version:  v2012                                 |
|   \\  /    A nd           | Website:  www.openfoam.com                      |
|    \\/     M anipulation  |                                                 |
\*---------------------------------------------------------------------------*/
FoamFile
{
    version     2.0;
    format      ascii;
    class       volVectorField;
    location    "0.2";
    object      U;
}
// * * * * * * * * * * * * * * * * * * * * * * * * * * * * * * * * * * * * * //

dimensions      [0 1 -1 0 0 0 0];


internalField   nonuniform List<vector> 
2500
(
(3.26608e-05 -3.2749e-05 0)
(9.86948e-05 -4.06539e-05 0)
(0.000137163 -2.0942e-05 0)
(0.000106088 7.85958e-06 0)
(-8.7928e-06 3.77057e-05 0)
(-0.000205927 6.52934e-05 0)
(-0.000477982 8.93121e-05 0)
(-0.000815147 0.000109349 0)
(-0.00120649 0.00012538 0)
(-0.00164076 0.000137543 0)
(-0.0021068 0.000146043 0)
(-0.00259382 0.000151112 0)
(-0.00309155 0.00015299 0)
(-0.0035903 0.000151919 0)
(-0.00408099 0.000148137 0)
(-0.00455526 0.000141877 0)
(-0.00500539 0.000133368 0)
(-0.00542439 0.000122834 0)
(-0.00580596 0.000110494 0)
(-0.00614449 9.65667e-05 0)
(-0.00643511 8.12676e-05 0)
(-0.00667366 6.48138e-05 0)
(-0.00685669 4.74246e-05 0)
(-0.00698151 2.93239e-05 0)
(-0.0070462 1.07423e-05 0)
(-0.00704961 -8.0822e-06 0)
(-0.0069914 -2.69067e-05 0)
(-0.00687206 -4.54765e-05 0)
(-0.00669294 -6.35274e-05 0)
(-0.00645626 -8.07872e-05 0)
(-0.00616514 -9.69783e-05 0)
(-0.0058236 -0.000111816 0)
(-0.00543659 -0.000125013 0)
(-0.00500997 -0.00013628 0)
(-0.00455049 -0.000145331 0)
(-0.00406578 -0.000151888 0)
(-0.00356429 -0.000155683 0)
(-0.00305523 -0.00015646 0)
(-0.00254851 -0.000153985 0)
(-0.00205462 -0.000148044 0)
(-0.00158454 -0.000138455 0)
(-0.00114951 -0.000125068 0)
(-0.000760883 -0.000107791 0)
(-0.000429777 -8.66208e-05 0)
(-0.000166588 -6.17389e-05 0)
(1.98289e-05 -3.37337e-05 0)
(0.00012354 -4.08544e-06 0)
(0.000144726 2.3756e-05 0)
(9.97129e-05 4.17272e-05 0)
(3.20943e-05 3.20266e-05 0)
(4.10441e-05 -9.90692e-05 0)
(9.38115e-05 -9.28618e-05 0)
(4.53838e-05 1.45192e-05 0)
(-0.000168683 0.000161726 0)
(-0.000575316 0.000318062 0)
(-0.00117586 0.000467535 0)
(-0.00195794 0.000601825 0)
(-0.00290136 0.000716876 0)
(-0.00398145 0.000810949 0)
(-0.00517134 0.000883582 0)
(-0.00644337 0.000935049 0)
(-0.00777004 0.000966061 0)
(-0.00912457 0.000977596 0)
(-0.0104813 0.000970792 0)
(-0.0118162 0.000946893 0)
(-0.0131064 0.000907199 0)
(-0.0143311 0.00085305 0)
(-0.0154712 0.00078581 0)
(-0.0165094 0.000706857 0)
(-0.0174304 0.000617585 0)
(-0.0182208 0.000519403 0)
(-0.0188691 0.000413742 0)
(-0.019366 0.000302056 0)
(-0.0197042 0.000185833 0)
(-0.0198783 6.66019e-05 0)
(-0.0198855 -5.40695e-05 0)
(-0.019725 -0.000174569 0)
(-0.0193982 -0.000293235 0)
(-0.0189089 -0.000408363 0)
(-0.0182635 -0.000518208 0)
(-0.0174707 -0.000620999 0)
(-0.0165415 -0.000714948 0)
(-0.0154895 -0.000798268 0)
(-0.0143307 -0.000869191 0)
(-0.0130835 -0.000925998 0)
(-0.0117685 -0.000967044 0)
(-0.0104082 -0.000990791 0)
(-0.00902734 -0.000995844 0)
(-0.007652 -0.000980996 0)
(-0.00630964 -0.000945278 0)
(-0.00502856 -0.000888025 0)
(-0.0038373 -0.000808983 0)
(-0.00276389 -0.00070846 0)
(-0.00183483 -0.000587606 0)
(-0.00107351 -0.000448922 0)
(-0.00049799 -0.000297243 0)
(-0.000117658 -0.000141579 0)
(7.23074e-05 1.58976e-06 0)
(0.000102815 0.000101722 0)
(4.21111e-05 9.97237e-05 0)
(2.24673e-05 -0.000139112 0)
(-1.00582e-05 -4.56554e-05 0)
(-0.000233929 0.00023945 0)
(-0.000705394 0.000608753 0)
(-0.00145024 0.00100189 0)
(-0.00247 0.00138257 0)
(-0.00374888 0.00172926 0)
(-0.00525982 0.00202987 0)
(-0.00696876 0.00227806 0)
(-0.00883764 0.00247109 0)
(-0.0108264 0.00260849 0)
(-0.0128947 0.00269126 0)
(-0.0150025 0.00272136 0)
(-0.0171114 0.00270142 0)
(-0.0191845 0.00263447 0)
(-0.0211873 0.00252386 0)
(-0.0230877 0.00237313 0)
(-0.0248562 0.00218594 0)
(-0.0264663 0.00196607 0)
(-0.0278942 0.00171739 0)
(-0.0291191 0.00144382 0)
(-0.0301233 0.00114939 0)
(-0.0308924 0.000838194 0)
(-0.031415 0.000514437 0)
(-0.0316832 0.000182422 0)
(-0.0316925 -0.000153432 0)
(-0.0314416 -0.000488592 0)
(-0.0309332 -0.000818406 0)
(-0.0301733 -0.00113812 0)
(-0.0291718 -0.0014429 0)
(-0.0279421 -0.00172784 0)
(-0.0265016 -0.00198802 0)
(-0.0248713 -0.00221858 0)
(-0.0230759 -0.00241471 0)
(-0.0211435 -0.0025718 0)
(-0.0191055 -0.00268549 0)
(-0.0169966 -0.00275175 0)
(-0.014854 -0.00276703 0)
(-0.0127171 -0.00272841 0)
(-0.010627 -0.0026337 0)
(-0.00862572 -0.00248175 0)
(-0.0067551 -0.00227269 0)
(-0.0050557 -0.00200844 0)
(-0.00356505 -0.00169342 0)
(-0.00231554 -0.00133577 0)
(-0.00133136 -0.000949374 0)
(-0.000624438 -0.000557229 0)
(-0.00018872 -0.000196563 0)
(7.03886e-06 7.2652e-05 0)
(2.53271e-05 0.000146327 0)
(-4.90479e-06 -0.000112135 0)
(-0.000153754 0.000164463 0)
(-0.000599606 0.000709749 0)
(-0.00137218 0.00137882 0)
(-0.00248615 0.00208367 0)
(-0.0039389 0.00276698 0)
(-0.00570978 0.00339217 0)
(-0.00776548 0.00393699 0)
(-0.0100644 0.00438871 0)
(-0.0125598 0.00474093 0)
(-0.0152019 0.00499156 0)
(-0.0179401 0.00514144 0)
(-0.0207239 0.00519342 0)
(-0.0235043 0.0051518 0)
(-0.0262342 0.00502181 0)
(-0.0288691 0.00480943 0)
(-0.0313676 0.00452109 0)
(-0.0336914 0.00416359 0)
(-0.0358061 0.00374402 0)
(-0.0376805 0.00326964 0)
(-0.0392879 0.00274795 0)
(-0.0406051 0.0021866 0)
(-0.0416132 0.00159344 0)
(-0.0422976 0.0009765 0)
(-0.042648 0.000344018 0)
(-0.0426586 -0.000295552 0)
(-0.042328 -0.000933557 0)
(-0.0416595 -0.00156113 0)
(-0.0406614 -0.00216925 0)
(-0.0393465 -0.00274874 0)
(-0.0377325 -0.00329035 0)
(-0.035842 -0.00378484 0)
(-0.0337022 -0.00422306 0)
(-0.0313453 -0.00459609 0)
(-0.0288076 -0.00489538 0)
(-0.0261297 -0.00511291 0)
(-0.0233561 -0.00524139 0)
(-0.0205344 -0.00527452 0)
(-0.017715 -0.00520725 0)
(-0.01495 -0.00503608 0)
(-0.0122923 -0.00475959 0)
(-0.0097945 -0.00437892 0)
(-0.00750682 -0.0038987 0)
(-0.00547559 -0.00332823 0)
(-0.00374052 -0.00268332 0)
(-0.00233167 -0.00198922 0)
(-0.00126521 -0.00128504 0)
(-0.000538404 -0.000629635 0)
(-0.00012972 -0.000110827 0)
(-6.02278e-07 0.000130088 0)
(-3.36629e-05 -3.26912e-06 0)
(-0.000309781 0.000567436 0)
(-0.00099944 0.00145711 0)
(-0.00209622 0.00249546 0)
(-0.00359709 0.00357231 0)
(-0.0054914 0.0046118 0)
(-0.0077515 0.00556289 0)
(-0.0103371 0.00639281 0)
(-0.0131996 0.00708167 0)
(-0.0162845 0.00761864 0)
(-0.0195343 0.00799937 0)
(-0.0228897 0.00822414 0)
(-0.0262917 0.00829652 0)
(-0.0296825 0.0082225 0)
(-0.0330065 0.00800976 0)
(-0.0362111 0.00766725 0)
(-0.0392469 0.00720482 0)
(-0.0420684 0.00663303 0)
(-0.0446342 0.00596293 0)
(-0.0469076 0.00520599 0)
(-0.0488561 0.00437404 0)
(-0.0504521 0.00347925 0)
(-0.0516732 0.00253409 0)
(-0.0525018 0.00155136 0)
(-0.0529256 0.00054417 0)
(-0.0529377 -0.000474021 0)
(-0.0525366 -0.00148946 0)
(-0.0517263 -0.00248808 0)
(-0.0505168 -0.00345557 0)
(-0.0489234 -0.00437745 0)
(-0.0469675 -0.00523913 0)
(-0.044676 -0.00602609 0)
(-0.0420816 -0.006724 0)
(-0.0392223 -0.00731893 0)
(-0.0361417 -0.00779762 0)
(-0.0328878 -0.00814771 0)
(-0.0295133 -0.00835809 0)
(-0.0260746 -0.00841927 0)
(-0.022631 -0.00832385 0)
(-0.0192437 -0.00806704 0)
(-0.0159748 -0.00764736 0)
(-0.0128856 -0.0070675 0)
(-0.0100346 -0.00633554 0)
(-0.00747578 -0.00546655 0)
(-0.00525605 -0.00448498 0)
(-0.00341212 -0.00342806 0)
(-0.0019667 -0.0023506 0)
(-0.000924372 -0.001331 0)
(-0.00027982 -0.000479958 0)
(-2.81667e-05 3.53484e-05 0)
(-6.11029e-05 0.000188349 0)
(-0.000465369 0.00117192 0)
(-0.00140538 0.00249527 0)
(-0.00283524 0.00397312 0)
(-0.00473059 0.00547903 0)
(-0.00706977 0.00692206 0)
(-0.00981602 0.00823853 0)
(-0.012921 0.0093858 0)
(-0.0163285 0.0103369 0)
(-0.019977 0.0110764 0)
(-0.0238016 0.0115974 0)
(-0.0277357 0.0118995 0)
(-0.031713 0.0119869 0)
(-0.0356685 0.0118673 0)
(-0.0395392 0.011551 0)
(-0.0432657 0.0110503 0)
(-0.0467919 0.0103788 0)
(-0.0500664 0.0095514 0)
(-0.0530422 0.00858362 0)
(-0.0556772 0.0074918 0)
(-0.0579346 0.0062928 0)
(-0.0597832 0.00500401 0)
(-0.0611972 0.00364331 0)
(-0.0621567 0.00222903 0)
(-0.0626477 0.000779976 0)
(-0.0626623 -0.000684583 0)
(-0.0621989 -0.00214494 0)
(-0.0612622 -0.003581 0)
(-0.0598633 -0.00497232 0)
(-0.0580198 -0.00629825 0)
(-0.0557561 -0.00753806 0)
(-0.0531026 -0.00867112 0)
(-0.0500965 -0.00967715 0)
(-0.0467811 -0.0105365 0)
(-0.0432054 -0.0112305 0)
(-0.039424 -0.0117419 0)
(-0.0354964 -0.0120553 0)
(-0.0314864 -0.0121576 0)
(-0.0274608 -0.0120389 0)
(-0.0234887 -0.011693 0)
(-0.0196398 -0.0111185 0)
(-0.0159833 -0.01032 0)
(-0.0125854 -0.00930915 0)
(-0.00950759 -0.00810729 0)
(-0.00680418 -0.00674755 0)
(-0.00451993 -0.00527864 0)
(-0.00268634 -0.00376966 0)
(-0.00131823 -0.00231547 0)
(-0.000430213 -0.00104422 0)
(-5.45597e-05 -0.000139211 0)
(-8.64425e-05 0.000459453 0)
(-0.00061512 0.0019768 0)
(-0.00180345 0.00382637 0)
(-0.00356636 0.00581543 0)
(-0.00585669 0.00780657 0)
(-0.00863982 0.00969744 0)
(-0.0118682 0.011414 0)
(-0.0154841 0.0129052 0)
(-0.0194232 0.0141376 0)
(-0.0236168 0.0150916 0)
(-0.0279927 0.0157579 0)
(-0.0324779 0.0161354 0)
(-0.0369992 0.016229 0)
(-0.0414854 0.0160484 0)
(-0.0458674 0.0156067 0)
(-0.0500797 0.0149197 0)
(-0.054061 0.0140053 0)
(-0.0577544 0.012883 0)
(-0.0611083 0.0115734 0)
(-0.0640765 0.0100982 0)
(-0.0666184 0.0084799 0)
(-0.0686995 0.0067417 0)
(-0.0702914 0.00490748 0)
(-0.0713722 0.00300179 0)
(-0.0719264 0.0010498 0)
(-0.0719454 -0.000922729 0)
(-0.0714272 -0.00288945 0)
(-0.0703771 -0.00482352 0)
(-0.0688071 -0.00669767 0)
(-0.0667367 -0.00848439 0)
(-0.0641924 -0.0101561 0)
(-0.0612079 -0.0116853 0)
(-0.0578238 -0.0130452 0)
(-0.0540876 -0.0142098 0)
(-0.0500532 -0.0151544 0)
(-0.0457807 -0.0158564 0)
(-0.0413352 -0.0162954 0)
(-0.0367869 -0.0164547 0)
(-0.0322091 -0.0163214 0)
(-0.0276779 -0.0158879 0)
(-0.0232703 -0.0151526 0)
(-0.0190625 -0.0141218 0)
(-0.0151283 -0.0128112 0)
(-0.0115371 -0.0112477 0)
(-0.00835145 -0.00947278 0)
(-0.00562552 -0.00754557 0)
(-0.00340129 -0.00554739 0)
(-0.00170589 -0.00358637 0)
(-0.000575356 -0.00180334 0)
(-7.89385e-05 -0.000390662 0)
(-0.000109695 0.000805698 0)
(-0.00075743 0.00297659 0)
(-0.00218798 0.00544629 0)
(-0.00427904 0.0080196 0)
(-0.00696057 0.0105523 0)
(-0.0101839 0.0129341 0)
(-0.0138894 0.015083 0)
(-0.0180091 0.0169412 0)
(-0.0224699 0.01847 0)
(-0.027195 0.0196463 0)
(-0.0321055 0.0204589 0)
(-0.0371217 0.0209065 0)
(-0.0421644 0.0209948 0)
(-0.0471565 0.0207358 0)
(-0.0520235 0.0201457 0)
(-0.0566949 0.0192442 0)
(-0.0611046 0.0180538 0)
(-0.0651914 0.016599 0)
(-0.0688997 0.014906 0)
(-0.0721796 0.0130021 0)
(-0.0749875 0.010916 0)
(-0.0772863 0.00867718 0)
(-0.0790453 0.00631615 0)
(-0.0802409 0.00386415 0)
(-0.0808564 0.00135325 0)
(-0.0808822 -0.00118373 0)
(-0.0803163 -0.00371325 0)
(-0.0791641 -0.00620114 0)
(-0.0774384 -0.00861273 0)
(-0.07516 -0.010913 0)
(-0.0723572 -0.013067 0)
(-0.0690661 -0.01504 0)
(-0.0653302 -0.0167977 0)
(-0.0612006 -0.0183074 0)
(-0.056735 -0.0195378 0)
(-0.0519982 -0.0204603 0)
(-0.0470603 -0.0210495 0)
(-0.041997 -0.0212842 0)
(-0.0368877 -0.0211483 0)
(-0.0318147 -0.0206323 0)
(-0.0268619 -0.0197344 0)
(-0.0221128 -0.0184623 0)
(-0.017649 -0.0168348 0)
(-0.013548 -0.0148844 0)
(-0.00988184 -0.0126596 0)
(-0.00671506 -0.0102286 0)
(-0.00410155 -0.0076829 0)
(-0.00208186 -0.00514101 0)
(-0.000713646 -0.00275269 0)
(-0.000101293 -0.000714925 0)
(-0.000131164 0.00122276 0)
(-0.000892512 0.00416422 0)
(-0.00255783 0.00734817 0)
(-0.00497009 0.0105798 0)
(-0.00803693 0.0137112 0)
(-0.0116952 0.0166269 0)
(-0.0158726 0.0192394 0)
(-0.0204898 0.0214859 0)
(-0.0254644 0.0233239 0)
(-0.0307113 0.0247276 0)
(-0.0361442 0.025685 0)
(-0.0416771 0.0261947 0)
(-0.0472247 0.0262642 0)
(-0.0527046 0.0259079 0)
(-0.0580375 0.0251455 0)
(-0.0631483 0.0240011 0)
(-0.0679666 0.0225021 0)
(-0.0724277 0.0206783 0)
(-0.0764726 0.0185618 0)
(-0.0800484 0.0161863 0)
(-0.0831089 0.0135868 0)
(-0.0856148 0.0107997 0)
(-0.0875335 0.00786226 0)
(-0.0888399 0.00481296 0)
(-0.0895162 0.00169119 0)
(-0.0895521 -0.00146273 0)
(-0.0889453 -0.00460759 0)
(-0.0877011 -0.00770147 0)
(-0.0858329 -0.0107018 0)
(-0.0833623 -0.0135657 0)
(-0.0803191 -0.0162502 0)
(-0.0767411 -0.0187126 0)
(-0.0726741 -0.0209111 0)
(-0.068172 -0.0228053 0)
(-0.0632961 -0.0243572 0)
(-0.0581147 -0.0255315 0)
(-0.0527028 -0.026297 0)
(-0.0471406 -0.0266278 0)
(-0.0415135 -0.0265042 0)
(-0.0359097 -0.0259141 0)
(-0.03042 -0.0248549 0)
(-0.0251352 -0.0233351 0)
(-0.0201452 -0.0213762 0)
(-0.0155364 -0.019015 0)
(-0.0113909 -0.0163063 0)
(-0.00778487 -0.0133256 0)
(-0.00478487 -0.0101728 0)
(-0.00244546 -0.00697426 0)
(-0.000845432 -0.00388626 0)
(-0.000121937 -0.00110798 0)
(-0.000151223 0.00170685 0)
(-0.00102137 0.00553274 0)
(-0.00291425 0.00952445 0)
(-0.00564043 0.013489 0)
(-0.00908618 0.0172772 0)
(-0.0131739 0.0207704 0)
(-0.0178179 0.0238777 0)
(-0.0229273 0.0265331 0)
(-0.0284094 0.0286916 0)
(-0.0341707 0.0303264 0)
(-0.0401174 0.031425 0)
(-0.0461565 0.0319872 0)
(-0.0521972 0.0320227 0)
(-0.0581518 0.0315489 0)
(-0.0639364 0.0305896 0)
(-0.0694719 0.0291736 0)
(-0.0746843 0.0273335 0)
(-0.0795056 0.0251052 0)
(-0.0838738 0.0225268 0)
(-0.0877339 0.0196386 0)
(-0.0910373 0.0164825 0)
(-0.0937428 0.0131019 0)
(-0.0958165 0.00954142 0)
(-0.0972317 0.00584695 0)
(-0.0979698 0.00206557 0)
(-0.0980197 -0.00175457 0)
(-0.0973787 -0.0055643 0)
(-0.0960519 -0.00931354 0)
(-0.0940529 -0.0129515 0)
(-0.091404 -0.0164269 0)
(-0.0881356 -0.0196885 0)
(-0.0842869 -0.0226851 0)
(-0.0799056 -0.025367 0)
(-0.0750477 -0.0276856 0)
(-0.0697773 -0.0295953 0)
(-0.0641661 -0.031054 0)
(-0.0582931 -0.0320239 0)
(-0.0522432 -0.0324738 0)
(-0.0461069 -0.0323796 0)
(-0.0399788 -0.0317261 0)
(-0.0339563 -0.0305093 0)
(-0.0281381 -0.0287374 0)
(-0.0226227 -0.0264339 0)
(-0.0175062 -0.0236387 0)
(-0.0128817 -0.0204117 0)
(-0.00883744 -0.0168344 0)
(-0.00545352 -0.0130131 0)
(-0.00279863 -0.00908081 0)
(-0.000971968 -0.00519838 0)
(-0.000141284 -0.00156643 0)
(-0.000170236 0.00225493 0)
(-0.00114533 0.00707607 0)
(-0.0032596 0.0119682 0)
(-0.00629323 0.0167408 0)
(-0.010112 0.0212444 0)
(-0.0146239 0.0253593 0)
(-0.0197299 0.0289929 0)
(-0.0253269 0.0320775 0)
(-0.0313119 0.0345675 0)
(-0.0375822 0.0364358 0)
(-0.044036 0.0376709 0)
(-0.0505737 0.0382748 0)
(-0.0570987 0.0382598 0)
(-0.0635183 0.0376474 0)
(-0.0697441 0.0364658 0)
(-0.0756932 0.0347492 0)
(-0.0812886 0.032536 0)
(-0.0864593 0.0298681 0)
(-0.0911412 0.0267904 0)
(-0.0952769 0.02335 0)
(-0.0988162 0.019596 0)
(-0.101716 0.015579 0)
(-0.103942 0.0113513 0)
(-0.105466 0.00696638 0)
(-0.106268 0.0024793 0)
(-0.106336 -0.00205377 0)
(-0.105668 -0.00657542 0)
(-0.104267 -0.0110272 0)
(-0.102149 -0.0153497 0)
(-0.0993337 -0.0194832 0)
(-0.0958536 -0.0233674 0)
(-0.0917483 -0.0269427 0)
(-0.0870669 -0.0301504 0)
(-0.0818669 -0.0329338 0)
(-0.0762147 -0.035239 0)
(-0.0701852 -0.037016 0)
(-0.0638605 -0.0382203 0)
(-0.0573303 -0.0388144 0)
(-0.0506902 -0.0387689 0)
(-0.0440409 -0.038065 0)
(-0.0374869 -0.0366959 0)
(-0.0311349 -0.034669 0)
(-0.0250926 -0.0320083 0)
(-0.0194667 -0.0287561 0)
(-0.0143617 -0.0249758 0)
(-0.009879 -0.0207535 0)
(-0.00611228 -0.0162011 0)
(-0.00314462 -0.0114565 0)
(-0.00109489 -0.0066847 0)
(-0.000159753 -0.0020878 0)
(-0.000188532 0.00286476 0)
(-0.00126574 0.00878945 0)
(-0.00359672 0.0146737 0)
(-0.00693271 0.0203293 0)
(-0.0111198 0.0256077 0)
(-0.0160517 0.0303892 0)
(-0.021616 0.0345808 0)
(-0.0276972 0.0381151 0)
(-0.0341813 0.040947 0)
(-0.0409562 0.0430506 0)
(-0.0479122 0.0444167 0)
(-0.0549427 0.0450502 0)
(-0.0619452 0.0449675 0)
(-0.0688219 0.0441944 0)
(-0.0754805 0.0427648 0)
(-0.0818345 0.0407183 0)
(-0.087804 0.0380998 0)
(-0.0933157 0.034958 0)
(-0.0983034 0.0313445 0)
(-0.102708 0.0273138 0)
(-0.106478 0.0229221 0)
(-0.109569 0.0182279 0)
(-0.111945 0.0132909 0)
(-0.113578 0.00817262 0)
(-0.114447 0.00293606 0)
(-0.114539 -0.00235438 0)
(-0.113851 -0.00763294 0)
(-0.112386 -0.0128326 0)
(-0.110158 -0.0178852 0)
(-0.107189 -0.022722 0)
(-0.10351 -0.0272739 0)
(-0.0991613 -0.031472 0)
(-0.0941925 -0.0352486 0)
(-0.0886625 -0.0385379 0)
(-0.0826397 -0.0412773 0)
(-0.076201 -0.0434084 0)
(-0.0694323 -0.0448791 0)
(-0.0624271 -0.0456444 0)
(-0.0552863 -0.0456693 0)
(-0.0481166 -0.0449298 0)
(-0.04103 -0.0434155 0)
(-0.0341418 -0.0411319 0)
(-0.0275693 -0.0381022 0)
(-0.0214303 -0.0343697 0)
(-0.0158415 -0.0300003 0)
(-0.0109178 -0.0250837 0)
(-0.00676726 -0.0197359 0)
(-0.00348727 -0.0140993 0)
(-0.00121595 -0.00834265 0)
(-0.000177737 -0.00267055 0)
(-0.000206396 0.0035348 0)
(-0.00138392 0.0106695 0)
(-0.00392852 0.0176368 0)
(-0.00756348 0.0242505 0)
(-0.0121157 0.0303633 0)
(-0.0174648 0.0358565 0)
(-0.0234847 0.0406384 0)
(-0.0300474 0.0446428 0)
(-0.0370278 0.0478267 0)
(-0.044304 0.0501668 0)
(-0.0517581 0.0516576 0)
(-0.0592764 0.0523079 0)
(-0.0667504 0.0521392 0)
(-0.0740776 0.0511828 0)
(-0.0811616 0.0494787 0)
(-0.0879128 0.0470729 0)
(-0.0942487 0.0440173 0)
(-0.100094 0.0403676 0)
(-0.10538 0.0361828 0)
(-0.110048 0.0315247 0)
(-0.114044 0.0264574 0)
(-0.117324 0.0210467 0)
(-0.11985 0.0153604 0)
(-0.121594 0.00946789 0)
(-0.122533 0.00344021 0)
(-0.122654 -0.00265 0)
(-0.121953 -0.00872853 0)
(-0.120434 -0.0147197 0)
(-0.118108 -0.0205465 0)
(-0.114997 -0.0261312 0)
(-0.111132 -0.0313952 0)
(-0.106552 -0.0362604 0)
(-0.101309 -0.0406493 0)
(-0.0954608 -0.0444868 0)
(-0.0890777 -0.0477007 0)
(-0.0822387 -0.0502236 0)
(-0.0750325 -0.0519945 0)
(-0.0675567 -0.0529607 0)
(-0.059917 -0.0530797 0)
(-0.0522267 -0.0523215 0)
(-0.0446052 -0.0506709 0)
(-0.0371766 -0.04813 0)
(-0.0300686 -0.04472 0)
(-0.0234107 -0.0404842 0)
(-0.0173325 -0.0354892 0)
(-0.0119631 -0.0298277 0)
(-0.00742513 -0.0236188 0)
(-0.00383066 -0.0170092 0)
(-0.0013369 -0.0101716 0)
(-0.000195595 -0.00331412 0)
(-0.000224073 0.00426423 0)
(-0.00150108 0.0127144 0)
(-0.00425782 0.0208551 0)
(-0.00819011 0.0285019 0)
(-0.0131058 0.0355089 0)
(-0.0188706 0.0417593 0)
(-0.0253447 0.0471635 0)
(-0.0323872 0.0516582 0)
(-0.0398617 0.0552038 0)
(-0.0476363 0.0577811 0)
(-0.0555847 0.0593892 0)
(-0.0635859 0.0600427 0)
(-0.0715257 0.0597689 0)
(-0.0792967 0.0586058 0)
(-0.0867987 0.0566002 0)
(-0.0939393 0.0538055 0)
(-0.100634 0.050281 0)
(-0.106805 0.0460899 0)
(-0.112383 0.0412991 0)
(-0.117309 0.035978 0)
(-0.121527 0.0301983 0)
(-0.124993 0.024034 0)
(-0.127668 0.0175604 0)
(-0.129524 0.0108549 0)
(-0.130537 0.00399661 0)
(-0.130694 -0.00293366 0)
(-0.129989 -0.00985332 0)
(-0.128425 -0.016678 0)
(-0.126012 -0.023322 0)
(-0.122772 -0.029698 0)
(-0.118735 -0.0357183 0)
(-0.113939 -0.0412948 0)
(-0.108434 -0.0463403 0)
(-0.10228 -0.0507693 0)
(-0.0955483 -0.0544996 0)
(-0.0883182 -0.0574538 0)
(-0.0806816 -0.0595613 0)
(-0.0727395 -0.0607602 0)
(-0.0646028 -0.0609995 0)
(-0.056391 -0.0602419 0)
(-0.0482313 -0.0584659 0)
(-0.040257 -0.0556687 0)
(-0.0326069 -0.0518683 0)
(-0.0254223 -0.0471061 0)
(-0.0188469 -0.041449 0)
(-0.0130244 -0.034991 0)
(-0.00809269 -0.0278543 0)
(-0.00417883 -0.0201891 0)
(-0.00145941 -0.012173 0)
(-0.000213654 -0.00401886 0)
(-0.000241775 0.00505282 0)
(-0.00161831 0.0149235 0)
(-0.00458726 0.024328 0)
(-0.00881696 0.0330828 0)
(-0.0140963 0.0410438 0)
(-0.0202768 0.0480966 0)
(-0.0272046 0.054155 0)
(-0.0347259 0.0591598 0)
(-0.0426926 0.0630759 0)
(-0.0509628 0.06589 0)
(-0.0594013 0.0676073 0)
(-0.0678801 0.0682491 0)
(-0.0762791 0.0678501 0)
(-0.0844862 0.066456 0)
(-0.0923979 0.0641214 0)
(-0.099919 0.060908 0)
(-0.106963 0.0568829 0)
(-0.113451 0.0521176 0)
(-0.119314 0.0466869 0)
(-0.12449 0.0406683 0)
(-0.128926 0.0341416 0)
(-0.132574 0.0271881 0)
(-0.135398 0.0198914 0)
(-0.137367 0.0123366 0)
(-0.138459 0.00461049 0)
(-0.138658 -0.00319789 0)
(-0.137958 -0.0109977 0)
(-0.13636 -0.0186962 0)
(-0.133874 -0.0261986 0)
(-0.13052 -0.0334087 0)
(-0.126325 -0.0402288 0)
(-0.121328 -0.0465611 0)
(-0.115577 -0.0523077 0)
(-0.109132 -0.0573728 0)
(-0.102064 -0.0616631 0)
(-0.0944538 -0.0650905 0)
(-0.0863951 -0.0675734 0)
(-0.0779924 -0.0690396 0)
(-0.0693613 -0.0694284 0)
(-0.0606276 -0.0686933 0)
(-0.0519262 -0.0668052 0)
(-0.0434005 -0.0637546 0)
(-0.0352001 -0.0595549 0)
(-0.0274796 -0.0542443 0)
(-0.0203969 -0.0478885 0)
(-0.0141112 -0.0405819 0)
(-0.00877664 -0.0324492 0)
(-0.00453571 -0.0236444 0)
(-0.00158508 -0.0143502 0)
(-0.000232211 -0.00478596 0)
(-0.000259686 0.00590088 0)
(-0.0017366 0.0172975 0)
(-0.00491924 0.0280562 0)
(-0.00944808 0.037994 0)
(-0.0150927 0.0469687 0)
(-0.0216901 0.0548689 0)
(-0.0290722 0.0616128 0)
(-0.0370719 0.0671463 0)
(-0.045529 0.0714408 0)
(-0.0542914 0.0744898 0)
(-0.063215 0.0763066 0)
(-0.0721648 0.0769206 0)
(-0.0810149 0.0763751 0)
(-0.0896488 0.0747248 0)
(-0.0979598 0.072033 0)
(-0.10585 0.0683706 0)
(-0.113233 0.0638134 0)
(-0.120028 0.0584415 0)
(-0.126165 0.0523383 0)
(-0.131584 0.0455894 0)
(-0.13623 0.0382824 0)
(-0.140057 0.0305068 0)
(-0.143028 0.0223536 0)
(-0.145111 0.0139155 0)
(-0.146285 0.00528722 0)
(-0.146533 -0.0034347 0)
(-0.145847 -0.0121514 0)
(-0.144228 -0.0207617 0)
(-0.141683 -0.0291622 0)
(-0.13823 -0.0372474 0)
(-0.133895 -0.0449103 0)
(-0.128715 -0.0520425 0)
(-0.122737 -0.0585356 0)
(-0.116018 -0.0642825 0)
(-0.10863 -0.0691783 0)
(-0.100653 -0.0731229 0)
(-0.0921833 -0.0760229 0)
(-0.0833279 -0.0777942 0)
(-0.0742067 -0.0783647 0)
(-0.0649517 -0.0776773 0)
(-0.055706 -0.0756934 0)
(-0.0466227 -0.0723951 0)
(-0.0378634 -0.0677893 0)
(-0.0295962 -0.0619096 0)
(-0.021994 -0.0548189 0)
(-0.0152328 -0.0466113 0)
(-0.00948343 -0.0374133 0)
(-0.00490506 -0.0273829 0)
(-0.0017154 -0.0167084 0)
(-0.000251539 -0.00561742 0)
(-0.000277966 0.00680921 0)
(-0.00185682 0.0198381 0)
(-0.00525596 0.0320422 0)
(-0.0100872 0.0432381 0)
(-0.0161002 0.0532858 0)
(-0.0231169 0.0620776 0)
(-0.0309547 0.069537 0)
(-0.0394323 0.0756166 0)
(-0.0483777 0.0802955 0)
(-0.057628 0.0835761 0)
(-0.0670304 0.0854808 0)
(-0.0764427 0.086049 0)
(-0.0857333 0.0853342 0)
(-0.0947819 0.083401 0)
(-0.103479 0.0803231 0)
(-0.111725 0.076181 0)
(-0.119432 0.0710603 0)
(-0.12652 0.0650503 0)
(-0.132919 0.058243 0)
(-0.138569 0.0507326 0)
(-0.143416 0.0426147 0)
(-0.147416 0.0339863 0)
(-0.15053 0.0249461 0)
(-0.152728 0.0155941 0)
(-0.153988 0.00603214 0)
(-0.154291 -0.00363564 0)
(-0.15363 -0.0133028 0)
(-0.152003 -0.0228603 0)
(-0.149416 -0.0321963 0)
(-0.145883 -0.0411963 0)
(-0.141429 -0.0497436 0)
(-0.136087 -0.0577196 0)
(-0.129902 -0.0650048 0)
(-0.122931 -0.0714802 0)
(-0.115242 -0.0770286 0)
(-0.106916 -0.081537 0)
(-0.09805 -0.0848988 0)
(-0.0887529 -0.0870164 0)
(-0.0791488 -0.0878048 0)
(-0.0693756 -0.0871943 0)
(-0.0595842 -0.0851345 0)
(-0.0499379 -0.0815976 0)
(-0.0406106 -0.0765818 0)
(-0.0317848 -0.0701141 0)
(-0.0236494 -0.0622535 0)
(-0.0163978 -0.0530927 0)
(-0.0102192 -0.0427592 0)
(-0.00529046 -0.0314149 0)
(-0.0018518 -0.0192549 0)
(-0.000271894 -0.00651602 0)
(-0.00029676 0.00777903 0)
(-0.0019798 0.0225483 0)
(-0.00559947 0.0362896 0)
(-0.0107378 0.048819 0)
(-0.0171236 0.0599985 0)
(-0.024563 0.069725 0)
(-0.0328581 0.0779283 0)
(-0.0418135 0.0845694 0)
(-0.0512441 0.0896365 0)
(-0.0609766 0.0931427 0)
(-0.0708492 0.0951214 0)
(-0.0807126 0.0956236 0)
(-0.09043 0.0947144 0)
(-0.0998775 0.0924703 0)
(-0.108943 0.0889762 0)
(-0.117527 0.0843234 0)
(-0.125539 0.078608 0)
(-0.132902 0.071929 0)
(-0.139547 0.0643876 0)
(-0.145413 0.0560865 0)
(-0.15045 0.0471294 0)
(-0.154613 0.0376208 0)
(-0.157865 0.0276664 0)
(-0.160177 0.0173734 0)
(-0.161524 0.00685026 0)
(-0.161891 -0.00379192 0)
(-0.161265 -0.0144396 0)
(-0.159645 -0.0249763 0)
(-0.157033 -0.0352823 0)
(-0.153442 -0.0452343 0)
(-0.148892 -0.0547061 0)
(-0.143415 -0.0635688 0)
(-0.13705 -0.0716916 0)
(-0.129852 -0.0789432 0)
(-0.121887 -0.0851933 0)
(-0.113235 -0.0903147 0)
(-0.103992 -0.0941863 0)
(-0.0942686 -0.0966955 0)
(-0.0841926 -0.0977423 0)
(-0.0739071 -0.0972423 0)
(-0.063571 -0.0951314 0)
(-0.0533578 -0.0913691 0)
(-0.043454 -0.0859428 0)
(-0.0340571 -0.0788713 0)
(-0.0253732 -0.0702077 0)
(-0.0176146 -0.0600417 0)
(-0.0109899 -0.0485016 0)
(-0.00569534 -0.0357531 0)
(-0.00199564 -0.0219983 0)
(-0.00029352 -0.00748523 0)
(-0.000316208 0.00881201 0)
(-0.00210632 0.0254319 0)
(-0.00595171 0.0408035 0)
(-0.0114031 0.0547417 0)
(-0.0181672 0.0671111 0)
(-0.0260337 0.0778139 0)
(-0.0347881 0.0867876 0)
(-0.0442202 0.0940026 0)
(-0.0541319 0.0994588 0)
(-0.0643386 0.103181 0)
(-0.0746699 0.105217 0)
(-0.0849694 0.10563 0)
(-0.0950957 0.104499 0)
(-0.104922 0.101914 0)
(-0.114333 0.0979722 0)
(-0.123231 0.0927772 0)
(-0.131526 0.0864359 0)
(-0.139141 0.0790581 0)
(-0.146009 0.0707543 0)
(-0.152073 0.0616358 0)
(-0.157283 0.0518142 0)
(-0.161596 0.0414015 0)
(-0.164978 0.0305101 0)
(-0.1674 0.0192532 0)
(-0.168837 0.00774599 0)
(-0.169272 -0.00389454 0)
(-0.168694 -0.0155484 0)
(-0.167097 -0.0270923 0)
(-0.164482 -0.0383989 0)
(-0.160857 -0.0493369 0)
(-0.15624 -0.059771 0)
(-0.150656 -0.069562 0)
(-0.144143 -0.0785675 0)
(-0.13675 -0.0866435 0)
(-0.12854 -0.0936458 0)
(-0.119591 -0.0994321 0)
(-0.109997 -0.103865 0)
(-0.0998687 -0.106816 0)
(-0.0893371 -0.108167 0)
(-0.0785499 -0.107816 0)
(-0.0676735 -0.105684 0)
(-0.0568916 -0.101715 0)
(-0.0464039 -0.0958828 0)
(-0.0364236 -0.0881954 0)
(-0.0271751 -0.078698 0)
(-0.018891 -0.0674763 0)
(-0.0118012 -0.0546579 0)
(-0.00612303 -0.0404123 0)
(-0.00214824 -0.0249492 0)
(-0.000316656 -0.00852923 0)
(-0.000336445 0.00991015 0)
(-0.00223713 0.0284937 0)
(-0.00631461 0.04559 0)
(-0.0120864 0.0610127 0)
(-0.0192355 0.0746292 0)
(-0.0275337 0.0863477 0)
(-0.0367494 0.0961151 0)
(-0.0466563 0.103913 0)
(-0.0570429 0.109755 0)
(-0.0677133 0.113681 0)
(-0.0784879 0.115752 0)
(-0.0892042 0.116049 0)
(-0.099716 0.114667 0)
(-0.109894 0.111708 0)
(-0.119623 0.107285 0)
(-0.128805 0.101516 0)
(-0.137352 0.0945179 0)
(-0.14519 0.0864125 0)
(-0.152254 0.0773199 0)
(-0.15849 0.0673602 0)
(-0.163852 0.0566528 0)
(-0.1683 0.0453164 0)
(-0.1718 0.0334697 0)
(-0.174324 0.0212317 0)
(-0.17585 0.00872277 0)
(-0.176361 -0.00393451 0)
(-0.175842 -0.0166147 0)
(-0.174286 -0.0291884 0)
(-0.171691 -0.0415218 0)
(-0.168061 -0.053476 0)
(-0.163409 -0.0649069 0)
(-0.157755 -0.0756653 0)
(-0.151132 -0.0855975 0)
(-0.143583 -0.0945463 0)
(-0.135166 -0.102353 0)
(-0.125956 -0.108859 0)
(-0.116043 -0.113909 0)
(-0.105539 -0.117355 0)
(-0.0945747 -0.119061 0)
(-0.0833019 -0.118906 0)
(-0.0718942 -0.11679 0)
(-0.0605453 -0.112639 0)
(-0.0494684 -0.106411 0)
(-0.0388933 -0.0981006 0)
(-0.0290637 -0.0877425 0)
(-0.0202343 -0.0754161 0)
(-0.0126584 -0.0612475 0)
(-0.00657676 -0.0454095 0)
(-0.00231092 -0.0281198 0)
(-0.000341538 -0.00965286 0)
(-0.000357613 0.0110759 0)
(-0.00237306 0.0317394 0)
(-0.00669017 0.0506566 0)
(-0.0127908 0.0676394 0)
(-0.0203327 0.0825586 0)
(-0.0290679 0.0953298 0)
(-0.0387463 0.10591 0)
(-0.0491249 0.114296 0)
(-0.0599777 0.120516 0)
(-0.0710973 0.124626 0)
(-0.0822954 0.126708 0)
(-0.0934031 0.126858 0)
(-0.104271 0.125189 0)
(-0.114767 0.121821 0)
(-0.124778 0.116883 0)
(-0.134206 0.110506 0)
(-0.142967 0.102821 0)
(-0.150991 0.0939602 0)
(-0.158216 0.0840551 0)
(-0.164594 0.0732339 0)
(-0.17008 0.0616235 0)
(-0.174639 0.0493489 0)
(-0.178241 0.0365345 0)
(-0.180859 0.0233041 0)
(-0.182472 0.00978264 0)
(-0.183062 -0.00390309 0)
(-0.182615 -0.0176231 0)
(-0.181119 -0.031243 0)
(-0.178571 -0.0446235 0)
(-0.174968 -0.0576188 0)
(-0.170319 -0.0700768 0)
(-0.164637 -0.0818388 0)
(-0.157949 -0.0927398 0)
(-0.150291 -0.102609 0)
(-0.141714 -0.111273 0)
(-0.132288 -0.118555 0)
(-0.1221 -0.124282 0)
(-0.111257 -0.128285 0)
(-0.0998902 -0.130404 0)
(-0.0881553 -0.130497 0)
(-0.0762313 -0.128441 0)
(-0.0643219 -0.124141 0)
(-0.0526537 -0.117535 0)
(-0.0414738 -0.108601 0)
(-0.0310469 -0.0973594 0)
(-0.0216516 -0.0838821 0)
(-0.0135669 -0.0682918 0)
(-0.00705979 -0.0507636 0)
(-0.002485 -0.0315237 0)
(-0.000368414 -0.0108617 0)
(-0.000379874 0.0123121 0)
(-0.00251498 0.0351757 0)
(-0.00708057 0.056012 0)
(-0.0135201 0.0746307 0)
(-0.0214633 0.0909064 0)
(-0.0306411 0.104764 0)
(-0.040783 0.116172 0)
(-0.051628 0.125145 0)
(-0.0629352 0.131728 0)
(-0.0744851 0.135999 0)
(-0.0860809 0.138058 0)
(-0.0975479 0.138025 0)
(-0.108734 0.13603 0)
(-0.119506 0.132215 0)
(-0.129754 0.126724 0)
(-0.139382 0.119705 0)
(-0.14831 0.111302 0)
(-0.156473 0.101662 0)
(-0.163817 0.0909228 0)
(-0.170296 0.0792238 0)
(-0.175872 0.0666984 0)
(-0.180515 0.0534773 0)
(-0.184197 0.0396896 0)
(-0.186896 0.025463 0)
(-0.18859 0.0109258 0)
(-0.189263 -0.00379212 0)
(-0.188899 -0.0185575 0)
(-0.187485 -0.0332324 0)
(-0.185011 -0.0476729 0)
(-0.181473 -0.0617277 0)
(-0.176869 -0.0752377 0)
(-0.171209 -0.0880351 0)
(-0.164509 -0.099944 0)
(-0.156798 -0.110781 0)
(-0.148119 -0.120355 0)
(-0.138533 -0.128473 0)
(-0.128121 -0.134941 0)
(-0.116987 -0.139565 0)
(-0.10526 -0.142163 0)
(-0.093095 -0.142566 0)
(-0.0806776 -0.140624 0)
(-0.0682203 -0.136217 0)
(-0.0559631 -0.12926 0)
(-0.0441713 -0.119708 0)
(-0.0331319 -0.107567 0)
(-0.0231496 -0.0928967 0)
(-0.0145319 -0.075814 0)
(-0.00757541 -0.0564956 0)
(-0.00267186 -0.0351762 0)
(-0.000397543 -0.0121619 0)
(-0.000403416 0.0136222 0)
(-0.00266395 0.0388107 0)
(-0.00748837 0.0616663 0)
(-0.0142783 0.0819963 0)
(-0.0226326 0.0996799 0)
(-0.0322586 0.114652 0)
(-0.0428637 0.126898 0)
(-0.0541675 0.136448 0)
(-0.0659129 0.143373 0)
(-0.0778687 0.147772 0)
(-0.0898293 0.149771 0)
(-0.101615 0.149511 0)
(-0.113072 0.147147 0)
(-0.12407 0.142842 0)
(-0.134498 0.136758 0)
(-0.144268 0.129061 0)
(-0.153306 0.119912 0)
(-0.161553 0.109467 0)
(-0.168961 0.0978774 0)
(-0.175493 0.0852891 0)
(-0.181117 0.0718426 0)
(-0.185808 0.0576738 0)
(-0.189543 0.0429151 0)
(-0.192304 0.0276972 0)
(-0.194071 0.0121501 0)
(-0.194828 -0.0035944 0)
(-0.194559 -0.0194014 0)
(-0.193248 -0.0351308 0)
(-0.190881 -0.0506355 0)
(-0.187448 -0.0657603 0)
(-0.18294 -0.08034 0)
(-0.177358 -0.094199 0)
(-0.170709 -0.107151 0)