/*--------------------------------*- C++ -*----------------------------------*\
| =========                 |                                                 |
| \\      /  F ield         | OpenFOAM: The Open Source CFD Toolbox           |
|  \\    /   O peration     | Version:  v2012                                 |
|   \\  /    A nd           | Website:  www.openfoam.com                      |
|    \\/     M anipulation  |                                                 |
\*---------------------------------------------------------------------------*/
FoamFile
{
    version     2.0;
    format      ascii;
    class       volScalarField;
    location    "0.25";
    object      p;
}
// * * * * * * * * * * * * * * * * * * * * * * * * * * * * * * * * * * * * * //

dimensions      [0 2 -2 0 0 0 0];


internalField   nonuniform List<scalar> 
2500
(
3.39353e-07
-0.000565217
-0.0023032
-0.00492538
-0.00801484
-0.0112419
-0.0143495
-0.0171375
-0.0194546
-0.0211899
-0.0222657
-0.0226315
-0.0222594
-0.0211408
-0.0192829
-0.0167068
-0.0134453
-0.00954141
-0.00504708
-2.18583e-05
0.00546795
0.0113502
0.0175477
0.0239791
0.0305596
0.0372015
0.0438157
0.0503121
0.0566009
0.0625934
0.0682039
0.0733505
0.0779567
0.0819535
0.0852803
0.0878875
0.0897381
0.0908099
0.0910975
0.0906152
0.0893993
0.0875118
0.0850436
0.0821197
0.0789049
0.0756101
0.0724988
0.0698982
0.0682152
0.0677075
0.00056543
1.81304e-06
-0.00143831
-0.00353258
-0.0059867
-0.00855943
-0.0110485
-0.013287
-0.0151426
-0.0165142
-0.0173279
-0.0175332
-0.0170997
-0.0160147
-0.0142801
-0.0119109
-0.00893358
-0.00538412
-0.00130722
0.00324496
0.00821376
0.0135348
0.019139
0.0249531
0.0309006
0.0369027
0.0428787
0.0487478
0.054429
0.0598433
0.0649141
0.0695689
0.0737405
0.0773687
0.0804016
0.0827976
0.0845271
0.085574
0.0859381
0.0856369
0.0847077
0.0832102
0.0812293
0.0788774
0.0762975
0.073665
0.0711869
0.0691026
0.067704
0.0672003
0.00230444
0.00144138
-8.79818e-06
-0.00190063
-0.00404646
-0.00626323
-0.00838985
-0.0102897
-0.0118505
-0.0129838
-0.013623
-0.0137212
-0.013249
-0.0121924
-0.0105512
-0.00833691
-0.00557174
-0.00228707
0.00147761
0.00567563
0.0102541
0.0151546
0.0203142
0.025666
0.03114
0.036664
0.0421642
0.0475664
0.0527968
0.0577829
0.0624553
0.066748
0.0706004
0.0739586
0.0767765
0.0790177
0.0806568
0.0816814
0.0820933
0.0819105
0.0811685
0.0799225
0.0782487
0.0762455
0.0740347
0.0717611
0.0695905
0.067707
0.0663026
0.0655211
0.00495479
0.0035497
0.00185943
-6.1835e-05
-0.00213039
-0.00420451
-0.00615459
-0.00787098
-0.00926146
-0.0102514
-0.0107837
-0.0108173
-0.0103261
-0.00929743
-0.00773074
-0.00563616
-0.00303344
4.91099e-05
0.00357561
0.00750346
0.0117841
0.0163639
0.0211847
0.0261846
0.0312988
0.0364602
0.0416004
0.0466504
0.0515416
0.0562069
0.0605815
0.0646047
0.0682202
0.0713783
0.0740367
0.076162
0.0777312
0.078733
0.0791692
0.0790562
0.078426
0.0773274
0.0758267
0.0740083
0.071974
0.0698421
0.067748
0.0658367
0.0642024
0.0629063
0.00813606
0.00606003
0.00400218
0.00192427
-0.000193278
-0.00224253
-0.00412037
-0.00574191
-0.00703422
-0.00793692
-0.00840306
-0.00839878
-0.00790256
-0.00690425
-0.00540418
-0.00341218
-0.00094666
0.00196622
0.00529333
0.00899532
0.0130273
0.0173395
0.0218779
0.026585
0.0314003
0.0362613
0.0411039
0.0458636
0.0504762
0.0548788
0.0590106
0.0628145
0.0662379
0.0692339
0.0717627
0.0737927
0.075302
0.0762793
0.076725
0.0766528
0.0760899
0.0750779
0.073673
0.0719457
0.0699792
0.0678678
0.065722
0.0636552
0.0616641
0.0597217
0.0115595
0.00875805
0.00625653
0.00393354
0.00167388
-0.000441098
-0.00232977
-0.00392906
-0.00518375
-0.00604709
-0.00648246
-0.00646364
-0.00597437
-0.00500792
-0.00356644
-0.00166032
0.000692508
0.00346718
0.00663254
0.0101517
0.0139828
0.0180791
0.0223901
0.026862
0.0314379
0.0360589
0.0406647
0.0451944
0.0495872
0.0537835
0.0577257
0.0613593
0.064634
0.0675049
0.0699335
0.0718891
0.0733496
0.0743025
0.0747462
0.0746905
0.0741574
0.073181
0.0718075
0.0700945
0.0681085
0.0659235
0.06363
0.0613169
0.0588902
0.0562438
0.0150046
0.0114652
0.00847749
0.00584853
0.00337802
0.00112744
-0.000838295
-0.00247464
-0.00374205
-0.0046063
-0.00504073
-0.00502672
-0.0045537
-0.00361884
-0.00222677
-0.000389139
0.00187587
0.00454397
0.00758527
0.0109647
0.0146424
0.0185745
0.022713
0.027007
0.0314026
0.0358439
0.0402734
0.0446331
0.0488648
0.0529112
0.0567168
0.060229
0.0633988
0.0661822
0.0685411
0.0704444
0.071869
0.0728006
0.0732345
0.0731765
0.0726425
0.0716594
0.0702641
0.0685026
0.0664271
0.0640946
0.0615809
0.0589572
0.0560491
0.0526823
0.0183001
0.0140316
0.0105381
0.00756491
0.00483674
0.00240072
0.0003091
-0.00140899
-0.00272758
-0.00362366
-0.00407979
-0.00408475
-0.00363364
-0.00272783
-0.00137484
0.000411929
0.00261349
0.00520554
0.00815884
0.0114395
0.0150092
0.018826
0.022844
0.0270145
0.031286
0.0356047
0.0399154
0.0441621
0.0482884
0.0522386
0.0559585
0.0593964
0.0625038
0.0652368
0.0675565
0.0694309
0.0708348
0.0717516
0.0721729
0.0720999
0.0715428
0.0705214
0.0690639
0.0672063
0.0649888
0.062455
0.0596701
0.0566935
0.05328
0.0491975
0.021312
0.0163327
0.0123271
0.00898729
0.00597096
0.00331525
0.00106314
-0.000768966
-0.00216668
-0.00311688
-0.00361051
-0.00364329
-0.00321587
-0.00233389
-0.00100798
0.00074637
0.00290893
0.00545494
0.00835528
0.0115767
0.015082
0.0188305
0.0227778
0.0268769
0.0310779
0.0353287
0.0395757
0.0437642
0.0478388
0.0517448
0.0554285
0.0588383
0.0619253
0.0646449
0.0669571
0.0688276
0.0702291
0.0711413
0.0715523
0.0714583
0.070864
0.0697822
0.0682336
0.0662454
0.0638479
0.0610744
0.0579831
0.0546264
0.0506965
0.045911
0.0239337
0.0182634
0.013747
0.0100282
0.00670467
0.00380665
0.00137049
-0.000597819
-0.00209374
-0.00311277
-0.00365342
-0.00371782
-0.00331193
-0.0024456
-0.00113267
0.000609023
0.00275773
0.00528784
0.00816996
0.011371
0.0148545
0.0185803
0.0225054
0.0265836
0.0307663
0.0350025
0.0392394
0.0434231
0.0474988
0.0514118
0.0551083
0.058536
0.0616453
0.0643899
0.0667277
0.0686221
0.0700425
0.070965
0.0713733
0.0712586
0.0706201
0.0694644
0.0678054
0.0656627
0.0630587
0.0600186
0.0565969
0.0528423
0.0483911
0.0429164
0.0260768
0.0197338
0.0147108
0.0106073
0.00696536
0.003811
0.00117591
-0.00094255
-0.00254822
-0.00364414
-0.00423557
-0.00433059
-0.00394014
-0.00307818
-0.00176183
-1.13608e-05
0.00214971
0.00469464
0.00759342
0.0108128
0.0143165
0.0180647
0.0220151
0.0261221
0.0303377
0.0346115
0.0388911
0.0431228
0.0472518
0.0512229
0.0549815
0.0584741
0.0616494
0.0644589
0.066858
0.068807
0.0702715
0.0712236
0.0716421
0.0715133
0.0708309
0.0695955
0.067815
0.0655028
0.0626747
0.0593499
0.0555813
0.0514169
0.0464417
0.0402878
0.0276656
0.0206642
0.0151394
0.0106492
0.00668324
0.00326489
0.000422724
-0.00185311
-0.00357368
-0.00474867
-0.00538946
-0.00550956
-0.00512465
-0.00425267
-0.00291398
-0.0011314
0.00106964
0.00366101
0.00661186
0.00988847
0.0134543
0.0172697
0.0212925
0.0254774
0.0297766
0.0341398
0.0385147
0.0428471
0.0470817
0.0511624
0.0550332
0.0586389
0.0619258
0.0648426
0.0673417
0.0693794
0.0709174
0.0719231
0.0723703
0.0722401
0.0715205
0.0702068
0.0683011
0.0658117
0.0627489
0.0591276
0.0550009
0.0504179
0.0449154
0.0380867
0.0286315
0.0209815
0.0149593
0.0100823
0.00579023
0.00210488
-0.000947233
-0.00338218
-0.0052174
-0.00646852
-0.00715248
-0.0072879
-0.00689493
-0.00599538
-0.00461282
-0.00277269
-0.000502471
0.00216819
0.00520734
0.00858053
0.0122507
0.0161782
0.0203205
0.0246324
0.0290658
0.0335703
0.0380931
0.0425793
0.0469726
0.0512155
0.05525
0.0590188
0.0624651
0.0655346
0.0681756
0.0703403
0.0719857
0.073074
0.073574
0.0734609
0.0727174
0.0713331
0.0693052
0.0666371
0.063335
0.0594101
0.0549174
0.0499085
0.0438733
0.0363676
0.0289101
0.0206166
0.0140994
0.00883659
0.0042188
0.000266914
-0.00299389
-0.00558517
-0.00753013
-0.00884985
-0.00956649
-0.00970345
-0.00928523
-0.0083374
-0.00688674
-0.00496136
-0.0025909
0.000193347
0.00335814
0.00686812
0.0106856
0.0147704
0.0190796
0.0235677
0.0281863
0.0328844
0.0376083
0.0423023
0.0469084
0.0513674
0.0556191
0.0596032
0.0632598
0.0665305
0.0693594
0.0716937
0.0734853
0.0746908
0.0752732
0.075202
0.074454
0.0730133
0.0708721
0.0680294
0.0644879
0.0602561
0.0553916
0.0499495
0.0433733
0.0351814
0.0284382
0.0195015
0.0124902
0.00684263
0.00190095
-0.00231446
-0.00577933
-0.00852031
-0.010566
-0.0119427
-0.0126774
-0.0127983
-0.0123341
-0.0113141
-0.00976833
-0.0077276
-0.00522379
-0.00229
0.00103913
0.00472717
0.00873561
0.0130236
0.0175478
0.022262
0.0271173
0.0320619
0.0370411
0.0419979
0.0468725
0.0516036
0.0561282
0.0603827
0.0643036
0.067828
0.0708951
0.0734466
0.0754285
0.0767915
0.0774921
0.0774937
0.0767668
0.07529
0.0730501
0.0700422
0.0662653
0.0617262
0.0564853
0.0506024
0.0434737
0.0345792
0.0271518
0.017568
0.010061
0.00402971
-0.00123295
-0.00570681
-0.00936829
-0.0122489
-0.0143826
-0.0158007
-0.0165351
-0.0166186
-0.0160841
-0.0149648
-0.0132939
-0.0111051
-0.00843267
-0.00531151
-0.0017778
0.00213085
0.00637501
0.0109131
0.015701
0.020692
0.0258364
0.0310814
0.0363712
0.0416472
0.0468478
0.051909
0.0567649
0.0613483
0.0655912
0.0694261
0.0727864
0.075608
0.0778303
0.0793972
0.0802583
0.0803701
0.0796965
0.0782098
0.0758917
0.0727328
0.0687287
0.0638843
0.0582638
0.0519315
0.0442349
0.0346148
0.0249845
0.0147454
0.00673934
0.000324794
-0.00525518
-0.00998064
-0.0138287
-0.0168358
-0.0190412
-0.0204813
-0.021193
-0.0212139
-0.0205812
-0.019332
-0.017503
-0.0151308
-0.0122519
-0.00890352
-0.00512323
-0.000949943
0.00357592
0.00841195
0.0135134
0.0188327
0.0243195
0.02992
0.0355771
0.0412305
0.0468165
0.0522684
0.0575171
0.0624911
0.067118
0.0713247
0.0750387
0.0781892
0.0807082
0.0825322
0.083603
0.0838694
0.083288
0.0818245
0.0794545
0.0761638
0.0719446
0.0667996
0.0607968
0.0540056
0.0457226
0.035347
0.0218659
0.0109595
0.00244901
-0.00434871
-0.0102416
-0.0152102
-0.0192323
-0.0223496
-0.0246068
-0.0260456
-0.0267083
-0.0266373
-0.0258747
-0.0244614
-0.0224379
-0.0198438
-0.0167183
-0.0131004
-0.00902963
-0.00454605
0.000308875
0.00549195
0.0109577
0.0166581
0.0225417
0.0285539
0.0346364
0.040727
0.04676
0.0526659
0.0583718
0.0638023
0.0688796
0.0735247
0.0776586
0.081203
0.084082
0.0862235
0.0875607
0.0880338
0.0875912
0.0861908
0.0838016
0.080404
0.0759859
0.0705476
0.064161
0.0569008
0.0480092
0.0368419
0.0177209
0.0061316
-0.00289088
-0.0100721
-0.016273
-0.0214745
-0.0256555
-0.0288632
-0.0311483
-0.0325584
-0.0331414
-0.0329452
-0.0320166
-0.0304011
-0.0281431
-0.0252854
-0.0218699
-0.0179379
-0.0135306
-0.00868928
-0.00345644
0.00212403
0.0080061
0.0141411
0.020477
0.0269584
0.0335258
0.0401155
0.0466593
0.0530851
0.0593163
0.0652728
0.0708717
0.0760274
0.0806536
0.0846638
0.0879735
0.0905009
0.0921697
0.09291
0.0926609
0.0913715
0.0890029
0.0855292
0.0809332
0.0752121
0.0684417
0.0607015
0.0511761
0.0391749
0.0124682
0.000176589
-0.00936718
-0.0169326
-0.0234355
-0.0288577
-0.0331795
-0.0364542
-0.0387393
-0.0400886
-0.0405564
-0.0401964
-0.0390612
-0.0372009
-0.0346642
-0.0314975
-0.0277456
-0.0234521
-0.0186599
-0.0134115
-0.00775033
-0.00172083
0.00463058
0.0112548
0.0180997
0.0251089
0.0322221
0.0393742
0.0464949
0.0535092
0.060337
0.0668936
0.07309
0.0788342
0.0840318
0.0885874
0.0924066
0.0953972
0.0974718
0.0985493
0.0985577
0.0974358
0.0951358
0.0916237
0.0868763
0.0808869
0.0737343
0.0655031
0.0553158
0.0424323
0.0060195
-0.00699764
-0.017074
-0.0250246
-0.0318224
-0.0374507
-0.0418917
-0.0452057
-0.0474576
-0.0487085
-0.04902
-0.0484525
-0.0470644
-0.0449118
-0.0420476
-0.0385224
-0.0343841
-0.0296785
-0.0244504
-0.0187436
-0.012602
-0.00607055
0.000804281
0.00797341
0.0153845
0.0229811
0.0307022
0.0384815
0.0462472
0.0539214
0.0614205
0.068655
0.0755303
0.0819469
0.0878021
0.0929907
0.0974073
0.100948
0.103513
0.105008
0.105348
0.104461
0.102286
0.0987819
0.0939163
0.0876774
0.080147
0.0714139
0.0605338
0.0467137
-0.00172159
-0.0154918
-0.0261141
-0.0344507
-0.041535
-0.0473518
-0.0518862
-0.0552065
-0.0573861
-0.0584947
-0.0586021
-0.0577765
-0.0560833
-0.0535847
-0.050339
-0.046401
-0.041822
-0.0366505
-0.0309329
-0.024714
-0.0180383
-0.0109507
-0.00349745
0.00427279
0.0123081
0.0205522
0.0289442
0.0374169
0.0458972
0.054305
0.0625532
0.0705479
0.0781883
0.0853676
0.0919739
0.0978915
0.103003
0.107191
0.110342
0.112347
0.113106
0.112531
0.11055
0.107109
0.102166
0.0957029
0.0878023
0.0785575
0.0669513
0.0521342
-0.0108609
-0.0254166
-0.0366005
-0.0453241
-0.0526841
-0.0586681
-0.0632647
-0.0665517
-0.0686127
-0.0695274
-0.069375
-0.0682329
-0.0661747
-0.0632696
-0.0595821
-0.0551716
-0.0500931
-0.0443979
-0.038134
-0.0313471
-0.0240819
-0.0163829
-0.00829553
0.000132455
0.00885016
0.0178023
0.0269284
0.0361613
0.0454272
0.0546442
0.0637223
0.0725631
0.08106
0.0890984
0.096557
0.103309
0.109223
0.114168
0.118013
0.120633
0.121911
0.121741
0.120035
0.116724
0.111755
0.105099
0.0968401
0.0870752
0.0747075
0.0588266
-0.0215153
-0.0368947
-0.0486585
-0.0577694
-0.0653918
-0.0715168
-0.0761378
-0.0793439
-0.0812308
-0.0818901
-0.0814126
-0.0798863
-0.0773943
-0.0740142
-0.0698171
-0.064868
-0.059226
-0.052945
-0.0460746
-0.0386614
-0.0307496
-0.0223829
-0.0136054
-0.00446304
0.00499506
0.0147154
0.0246386
0.0346987
0.0448217
0.0549248
0.0649156
0.0746919
0.0841413
0.0931417
0.101562
0.109262
0.116099
0.121922
0.126585
0.129941
0.131852
0.132195
0.130859
0.127759
0.122826
0.116019
0.10742
0.0971293
0.0839625
0.0669444
-0.0338144
-0.050063
-0.0624281
-0.071926
-0.0797937
-0.086027
-0.090626
-0.0936932
-0.0953392
-0.09567
-0.0947901
-0.0928004
-0.0897952
-0.0858616
-0.0810787
-0.0755176
-0.0692418
-0.0623081
-0.0547676
-0.0466671
-0.0380501
-0.0289587
-0.0194349
-0.00952209
0.000733495
0.011281
0.0220636
0.033017
0.0440685
0.0551351
0.0661231
0.076927
0.0874293
0.0975002
0.106999
0.115773
0.123662
0.1305
0.136118
0.140347
0.143027
0.144008
0.143157
0.140366
0.135545
0.128639
0.119727
0.108907
0.0949016
0.0766652
-0.047903
-0.0650756
-0.078067
-0.0879504
-0.0960413
-0.102342
-0.106861
-0.109719
-0.111043
-0.110957
-0.109583
-0.107036
-0.103426
-0.0988486
-0.0933937
-0.0871386
-0.0801519
-0.0724932
-0.0642149
-0.0553635
-0.0459813
-0.036108
-0.0257822
-0.0150439
-0.00393536
0.00749651
0.0191986
0.0311099
0.0431599
0.055267
0.0673371
0.0792625
0.0909215
0.102177
0.112879
0.122861
0.131946
0.13995
0.146678
0.151939
0.155542
0.157308
0.157077
0.154711
0.150098
0.14316
0.133969
0.122623
0.107739
0.0881944
-0.0639447
-0.0821075
-0.0957547
-0.10602
-0.114305
-0.120621
-0.124989
-0.127548
-0.128451
-0.127843
-0.125865
-0.122651
-0.118327
-0.113003
-0.106778
-0.0997371
-0.0919545
-0.0834925
-0.0744046
-0.0647363
-0.0545277
-0.0438151
-0.0326329
-0.021016
-0.00900162
0.00336888
0.0160476
0.0289783
0.0420944
0.055317
0.0685533
0.0816951
0.094617
0.107176
0.119212
0.130547
0.140986
0.150322
0.158336
0.164807
0.169511
0.172236
0.172785
0.170988
0.166698
0.159813
0.150392
0.138528
0.122722
0.10177
-0.0821259
-0.10136
-0.115698
-0.126339
-0.13478
-0.141044
-0.145168
-0.147321
-0.147681
-0.14642
-0.143706
-0.139695
-0.13453
-0.12834
-0.121232
-0.113303
-0.104631
-0.0952814
-0.0853077
-0.074754
-0.0636571
-0.0520486
-0.0399574
-0.0274119
-0.0144424
-0.00108313
0.0126249
0.0266321
0.0408777
0.0552876
0.0697721
0.084224
0.0985163
0.112502
0.126011
0.138852
0.150815
0.161667
0.171164
0.179048
0.18506
0.188947
0.190468
0.189411
0.185588
0.178863
0.169277
0.156912
0.140141
0.11767
-0.102662
-0.123067
-0.138137
-0.149142
-0.157688
-0.163813
-0.167579
-0.169187
-0.168852
-0.166781
-0.163171
-0.158207
-0.152054
-0.144857
-0.136741
-0.127808
-0.118143
-0.107814
-0.0968743
-0.0853647
-0.0733175
-0.0607582
-0.0477083
-0.0341881
-0.0202192
-0.00582679
0.00895716
0.0240918
0.0395246
0.0551883
0.0709988
0.0868519
0.102622
0.118158
0.133283
0.147796
0.161465
0.174037
0.185235
0.194765
0.202324
0.20761
0.210332
0.210223
0.207045
0.200616
0.190951
0.178115
0.160335
0.136218
-0.125804
-0.147504
-0.163356
-0.174707
-0.183286
-0.189159
-0.192418
-0.193308
-0.19209
-0.189014
-0.184315
-0.178212
-0.170896
-0.162533
-0.153262
-0.143197
-0.132426
-0.12102
-0.10903
-0.0964924
-0.0834338
-0.0698713
-0.0558174
-0.0412821
-0.0262761
-0.0108135
0.0050853
0.0213905
0.0380601
0.0550368
0.0722444
0.0895854
0.106937
0.124148
0.141038
0.157393
0.172966
0.187479
0.200623
0.212062
0.221444
0.22841
0.232605
0.233699
0.231388
0.225428
0.215797
0.202536
0.183701
0.157794
-0.151851
-0.175003
-0.191693
-0.203359
-0.211877
-0.217348
-0.219906
-0.219858
-0.217522
-0.213201
-0.20718
-0.199716
-0.191032
-0.181317
-0.170728
-0.159386
-0.147386
-0.134799
-0.121671
-0.108034
-0.0939046
-0.0792909
-0.0641934
-0.0486098
-0.0325374
-0.0159767
0.00106575
0.0185742
0.0365202
0.0548591
0.0735264
0.092434
0.111466
0.130475
0.149278
0.167654
0.185341
0.202037
0.217398
0.231045
0.242569
0.251545
0.257543
0.26015
0.25898
0.253711
0.244267
0.230647
0.210713
0.182847
-0.181165
-0.205963
-0.223559
-0.235491
-0.243816
-0.248683
-0.25029
-0.249022
-0.245272
-0.239412
-0.231786
-0.222697
-0.212405
-0.201126
-0.189032
-0.176256
-0.162894
-0.149015
-0.134661
-0.119854
-0.1046
-0.0888928
-0.0727202
-0.0560644
-0.0389069
-0.0212318
-0.00302879
0.0157031
0.0349521
0.05469
0.0748676
0.0954102
0.116213
0.137137
0.158001
0.178582
0.198604
0.217743
0.235623
0.251816
0.265851
0.277225
0.285421
0.289924
0.290242
0.285949
0.276892
0.263011
0.241937
0.211912
-0.21419
-0.240881
-0.259456
-0.271579
-0.279524
-0.283518
-0.283846
-0.280995
-0.27546
-0.267698
-0.258124
-0.247097
-0.234919
-0.221833
-0.208028
-0.193645
-0.17878
-0.163497
-0.147829
-0.131785
-0.115357
-0.0985243
-0.0812556
-0.0635155
-0.0452671
-0.0264751
-0.00710952
0.0128506
0.0334139
0.0545719
0.0762952
0.0985274
0.12118
0.144127
0.167196
0.190165
0.212753
0.234616
0.255345
0.274465
0.291437
0.305671
0.316541
0.323412
0.325655
0.322707
0.314308
0.300307
0.278054
0.245633
-0.251479
-0.280377
-0.300013
-0.312203
-0.319507
-0.322261
-0.320876
-0.315978
-0.308191
-0.298079
-0.286145
-0.272811
-0.258426
-0.24326
-0.227518
-0.211343
-0.194829
-0.178029
-0.160963
-0.143624
-0.125985
-0.108004
-0.0896315
-0.0708099
-0.0514805
-0.0315858
-0.011073
0.0101022
0.0319721
0.0545527
0.0778384
0.101797
0.126362
0.151426
0.176835
0.202374
0.227763
0.252647
0.276588
0.299064
0.319464
0.337101
0.351224
0.361048
0.365772
0.364653
0.357276
0.343359
0.319902
0.284795
-0.293739
-0.325243
-0.346021
-0.358086
-0.364374
-0.365387
-0.361713
-0.354169
-0.343541
-0.330532
-0.315744
-0.299674
-0.282716
-0.265167
-0.247242
-0.229083
-0.210774
-0.19235
-0.173813
-0.155131
-0.136257
-0.117124
-0.0976565
-0.0777739
-0.0573923
-0.0364286
-0.0148044
0.00755152
0.0306989
0.054682
0.0795245
0.105223
0.131742
0.159
0.186868
0.215151
0.243578
0.271793
0.299339
0.325648
0.350041
0.371724
0.389802
0.403308
0.411226
0.412574
0.40672
0.393183
0.368515
0.330365
-0.341888
-0.376507
-0.398493
-0.410128
-0.414859
-0.41344
-0.406712
-0.395746
-0.381542
-0.364966
-0.346739
-0.327437
-0.307497
-0.287239
-0.266876
-0.24654
-0.226295
-0.206153
-0.186085
-0.166034
-0.14592
-0.12565
-0.105119
-0.0842178
-0.0628349
-0.0408588
-0.0181821
0.00529604
0.0296666
0.0550063
0.081373
0.1088
0.137286
0.16679
0.197215
0.228399
0.260096
0.291961
0.323529
0.354202
0.383233
0.409718
0.432604
0.450707
0.462738
0.467402
0.463763
0.451043
0.425199
0.383562
-0.397142
-0.435528
-0.458745
-0.469462
-0.471848
-0.467039
-0.456235
-0.440848
-0.422148
-0.401198
-0.378848
-0.355752
-0.332384
-0.309071
-0.286014
-0.263319
-0.241016
-0.219082
-0.197451
-0.176027
-0.154697
-0.133331
-0.111793
-0.0899424
-0.0676349
-0.0447288
-0.0210852
0.0034295
0.0289404
0.0555611
0.0833887
0.112498
0.142934
0.174702
0.207753
0.241971
0.277152
0.312982
0.34901
0.384625
0.419026
0.451203
0.479932
0.503777
0.521116
0.53024
0.529787
0.518536
0.491625
0.44594
-0.461148
-0.504134
-0.528505
-0.537523
-0.536406
-0.526868
-0.510623
-0.48953
-0.465197
-0.438907
-0.411649
-0.38414
-0.356874
-0.330161
-0.304168
-0.278956
-0.254506
-0.230741
-0.207548
-0.184785
-0.162294
-0.139908
-0.117451
-0.0947482
-0.0716222
-0.0478977
-0.0234021
0.00203311
0.0285702
0.0563628
0.0855519
0.116261
0.148588
0.182597
0.2183
0.255648
0.294498
0.334594
0.375527
0.416701
0.457289
0.496193
0.532017
0.563045
0.587248
0.602386
0.6065
0.597709
0.56998
0.51954
-0.536201
-0.584836
-0.610075
-0.616131
-0.609792
-0.593652
-0.570142
-0.541704
-0.510344
-0.477588
-0.444542
-0.411962
-0.380325
-0.34989
-0.32076
-0.29292
-0.26628
-0.240696
-0.215991
-0.191966
-0.168414
-0.14512
-0.121869
-0.0984472
-0.0746417
-0.0502425
-0.0250418
0.00116497
0.0285793
0.0573974
0.0878085
0.11999
0.154102
0.190277
0.228606
0.269124
0.311779
0.356404
0.402671
0.450044
0.497714
0.544532
0.588951
0.628966
0.66207
0.68535
0.696022
0.69122
0.66319
0.607111
-0.625587
-0.681162
-0.70655
-0.707584
-0.693458
-0.668088
-0.634892
-0.597039
-0.556984
-0.516476
-0.476697
-0.438385
-0.40194
-0.36752
-0.335118
-0.304613
-0.275815
-0.248491
-0.222385
-0.197233
-0.172768
-0.148725
-0.124846
-0.100876
-0.0765659
-0.0516701
-0.0259458
0.000848447
0.0289536
0.0586106
0.090059
0.123535
0.159268
0.197471
0.23833
0.281985
0.328507
0.377856
0.429839
0.484039
0.539735
0.595798
0.650588
0.701829
0.746496
0.780842
0.800975
0.802566
0.775261
0.712477
-0.73419
-0.798172
-0.822121
-0.814747
-0.788988
-0.750716
-0.70465
-0.654819
-0.604121
-0.554459
-0.506994
-0.462342
-0.420744
-0.382185
-0.346489
-0.313387
-0.282559
-0.25366
-0.226343
-0.200264
-0.175094
-0.150514
-0.126218
-0.101911
-0.0773088
-0.0521307
-0.0260999
0.00106077
0.0296313
0.0598967
0.0921486
0.126685
0.16381
0.203826
0.247029
0.293689
0.34403
0.398192
0.456174
0.517764
0.582427
0.649172
0.716379
0.781591
0.841273
0.890712
0.924573
0.936394
0.911826
0.841184
-0.869581
-0.943285
-0.96247
-0.94109
-0.897934
-0.841667
-0.778623
-0.713731
-0.650221
-0.589976
-0.533957
-0.482509
-0.435584
-0.3929
-0.354049
-0.318563
-0.285957
-0.255757
-0.227507
-0.200781
-0.175178
-0.150325
-0.125871
-0.101483
-0.0768394
-0.0516298
-0.0255456
0.00172336
0.0304933
0.0610915
0.0938601
0.12916
0.167371
0.208894
0.254146
0.30355
0.357517
0.416413
0.48051
0.5499
0.624377
0.703258
0.785145
0.8676
0.946711
1.01676
1.07065
1.0989
1.081
1.00165
-1.04408
-1.1276
-1.13523
-1.09058
-1.02145
-0.94024
-0.855068
-0.77158
-0.693015
-0.6209
-0.555706
-0.497283
-0.445132
-0.39859
-0.356939
-0.319462
-0.285484
-0.254379
-0.225578
-0.198564
-0.17287
-0.148068
-0.123763
-0.0995884
-0.0751926
-0.0502372
-0.0243871
0.00269579
0.0313594
0.0619687
0.0949124
0.13061
0.169519
0.212139
0.259015
0.310739
0.36794
0.431261
0.501325
0.578652
0.663539
0.755861
0.854761
0.958192
1.06223
1.16036
1.24354
1.2983
1.29474
1.20735
-1.27896
-1.368
-1.3503
-1.26714
-1.15946
-1.04413
-0.930703
-0.824894
-0.729271
-0.644427
-0.569919
-0.504799
-0.447924
-0.398127
-0.354304
-0.315451
-0.280679
-0.249204
-0.22034
-0.193485
-0.168108
-0.143733
-0.11993
-0.096302
-0.0724759
-0.0480917
-0.0227945
0.00377499
0.0319893
0.0622437
0.0949661
0.130628
0.169757
0.212946
0.26087
0.314296
0.374088
0.441211
0.516709
0.601663
0.697083
0.803716
0.921711
1.05004
1.18551
1.32153
1.44746
1.54509
1.57102
1.48125
-1.61291
-1.69019
-1.61933
-1.47291
-1.30892
-1.14804
-0.999762
-0.868361
-0.754496
-0.656954
-0.573803
-0.502951
-0.442405
-0.390384
-0.345346
-0.30598
-0.271179
-0.240009
-0.211678
-0.185509
-0.16092
-0.137398
-0.114488
-0.0917737
-0.0688678
-0.0453985
-0.0209998
0.00469985
0.0320881
0.0615803
0.0936325
0.128756
0.167534
0.210642
0.258871
0.313153
0.37459
0.444484
0.524358
0.615961
0.721225
0.842142
0.980472
1.13714
1.31102
1.49707
1.68467
1.85149
1.93683
1.86471
-2.11672
-2.13164
-1.9535
-1.70521
-1.46124
-1.24198
-1.05309
-0.894462
-0.762893
-0.654189
-0.564276
-0.489574
-0.427089
-0.374367
-0.329426
-0.290664
-0.256782
-0.226722
-0.199611
-0.174724
-0.151443
-0.129237
-0.107639
-0.0862276
-0.0646116
-0.0424188
-0.0192823
0.00517048
0.0313307
0.0596207
0.0905096
0.124531
0.162304
0.204562
0.252183
0.306238
0.368036
0.439198
0.521725
0.618092
0.731313
0.864974
1.02313
1.20988
1.42825
1.67793
1.95231
2.22901
2.43088
2.43192
-2.91884
-2.742
-2.35915
-1.95418
-1.60136
-1.31132
-1.07887
-0.894542
-0.748488
-0.632196
-0.538854
-0.463187
-0.401164
-0.349707
-0.306459
-0.269597
-0.237693
-0.209616
-0.184454
-0.161461
-0.140016
-0.119587
-0.0997147
-0.0799853
-0.0600186
-0.039453
-0.0179327
0.00490427
0.0294392
0.0560867
0.085311
0.117646
0.15372
0.19429
0.24028
0.292842
0.353433
0.423917
0.506704
0.604945
0.722766
0.865567
1.04031
1.25568
1.52172
1.84813
2.23975
2.68369
3.10336
3.31483
-4.3083
-3.58027
-2.81237
-2.18396
-1.69677
-1.33088
-1.05969
-0.85744
-0.704499
-0.587052
-0.495417
-0.42277
-0.36427
-0.316429
-0.276691
-0.243147
-0.21434
-0.189142
-0.166658
-0.146164
-0.127064
-0.108854
-0.0910989
-0.0734094
-0.0554292
-0.0368201
-0.0172494
0.00362162
0.0261508
0.0507287
0.0777949
0.107859
0.141526
0.179531
0.222788
0.272456
0.330027
0.397469
0.47742
0.573479
0.690651
0.83599
1.01952
1.25552
1.56429
1.9728
2.50867
3.19009
4.01476
4.80842
-7.04621
-4.67306
-3.13914
-2.23596
-1.63555
-1.22714
-0.948437
-0.752907
-0.611087
-0.505288
-0.424437
-0.361312
-0.311067
-0.270354
-0.236787
-0.208618
-0.184536
-0.163529
-0.144803
-0.127717
-0.111744
-0.0964407
-0.0814219
-0.0663456
-0.0508978
-0.0347801
-0.0176993
0.000643259
0.0205633
0.0424053
0.0665577
0.093471
0.123681
0.157844
0.196774
0.241514
0.293423
0.354316
0.426673
0.513981
0.621287
0.756111
0.929994
1.16131
1.48061
1.93678
2.59635
3.57209
5.19439
7.67838
-11.6814
-5.75835
-2.98806
-1.87145
-1.28236
-0.92829
-0.706897
-0.559727
-0.455658
-0.378779
-0.320207
-0.274504
-0.238132
-0.208672
-0.184399
-0.164037
-0.146616
-0.131383
-0.117734
-0.105181
-0.0933147
-0.0817889
-0.0703002
-0.058577
-0.0463684
-0.0334354
-0.0195428
-0.00445096
0.0120924
0.0303617
0.050664
0.0733532
0.0988471
0.127651
0.160391
0.197856
0.241068
0.291381
0.350636
0.421417
0.507499
0.614661
0.752274
0.936867
1.2004
1.60433
2.26054
3.47179
6.35799
12.4032
)
;

boundaryField
{
    movingWall
    {
        type            zeroGradient;
    }
    fixedWalls
    {
        type            zeroGradient;
    }
    frontAndBack
    {
        type            empty;
    }
}


// ************************************************************************* //
