/*--------------------------------*- C++ -*----------------------------------*\
| =========                 |                                                 |
| \\      /  F ield         | OpenFOAM: The Open Source CFD Toolbox           |
|  \\    /   O peration     | Version:  v2012                                 |
|   \\  /    A nd           | Website:  www.openfoam.com                      |
|    \\/     M anipulation  |                                                 |
\*---------------------------------------------------------------------------*/
FoamFile
{
    version     2.0;
    format      ascii;
    class       surfaceScalarField;
    location    "0.25";
    object      phi;
}
// * * * * * * * * * * * * * * * * * * * * * * * * * * * * * * * * * * * * * //

dimensions      [0 3 -1 0 0 0 0];
oriented        oriented;


internalField   nonuniform List<scalar> 
4900
(
1.18225e-09
-1.18269e-09
2.41951e-09
-1.23727e-09
2.51837e-09
-9.88579e-11
1.04005e-09
1.47831e-09
-2.09607e-09
3.13612e-09
-6.80215e-09
4.70608e-09
-1.2908e-08
6.10582e-09
-2.02058e-08
7.29789e-09
-2.84739e-08
8.26807e-09
-3.74882e-08
9.01435e-09
-4.70296e-08
9.54141e-09
-5.68874e-08
9.85782e-09
-6.68619e-08
9.97445e-09
-7.67654e-08
9.90357e-09
-8.64236e-08
9.65823e-09
-9.56756e-08
9.25201e-09
-1.04374e-07
8.69871e-09
-1.12387e-07
8.01232e-09
-1.19594e-07
7.20691e-09
-1.2589e-07
6.29665e-09
-1.31186e-07
5.29587e-09
-1.35405e-07
4.21904e-09
-1.38486e-07
3.08092e-09
-1.40383e-07
1.89657e-09
-1.41064e-07
6.81451e-10
-1.40515e-07
-5.4855e-10
-1.38738e-07
-1.77706e-09
-1.35751e-07
-2.9872e-09
-1.3159e-07
-4.16165e-09
-1.26307e-07
-5.28266e-09
-1.19975e-07
-6.33216e-09
-1.12683e-07
-7.29188e-09
-1.04539e-07
-8.14354e-09
-9.56705e-08
-8.86903e-09
-8.62199e-08
-9.45064e-09
-7.63486e-08
-9.8714e-09
-6.62332e-08
-1.01154e-08
-5.60652e-08
-1.0168e-08
-4.60486e-08
-1.00166e-08
-3.63981e-08
-9.65058e-09
-2.73358e-08
-9.06239e-09
-1.90877e-08
-8.24816e-09
-1.18785e-08
-7.20934e-09
-5.92315e-09
-5.95529e-09
-1.41456e-09
-4.50847e-09
1.50065e-09
-2.91507e-09
2.76597e-09
-1.2653e-09
2.4976e-09
2.68206e-10
1.17488e-09
1.32247e-09
1.17469e-09
1.25158e-09
-2.43427e-09
1.45009e-09
-1.4358e-09
-1.15896e-09
2.51018e-09
-7.3823e-09
7.70164e-09
-1.74701e-08
1.32239e-08
-3.13141e-08
1.85501e-08
-4.8589e-08
2.33807e-08
-6.88451e-08
2.7554e-08
-9.15665e-08
3.09895e-08
-1.16208e-07
3.36556e-08
-1.42217e-07
3.55506e-08
-1.69051e-07
3.66919e-08
-1.96186e-07
3.71092e-08
-2.23122e-07
3.68404e-08
-2.49393e-07
3.59285e-08
-2.74561e-07
3.44201e-08
-2.98226e-07
3.23643e-08
-3.20025e-07
2.98114e-08
-3.39632e-07
2.68133e-08
-3.56758e-07
2.34227e-08
-3.71155e-07
1.96931e-08
-3.82615e-07
1.56792e-08
-3.90971e-07
1.14367e-08
-3.96097e-07
7.02277e-09
-3.97912e-07
2.4958e-09
-3.96376e-07
-2.08414e-09
-3.91498e-07
-6.65537e-09
-3.8333e-07
-1.11546e-08
-3.71975e-07
-1.5517e-08
-3.57581e-07
-1.96765e-08
-3.40347e-07
-2.35663e-08
-3.2052e-07
-2.71191e-08
-2.98396e-07
-3.0268e-08
-2.74317e-07
-3.29472e-08
-2.48675e-07
-3.50931e-08
-2.21901e-07
-3.66454e-08
-1.94468e-07
-3.75483e-08
-1.66884e-07
-3.77522e-08
-1.39685e-07
-3.72155e-08
-1.13429e-07
-3.59065e-08
-8.86846e-08
-3.38068e-08
-6.60176e-08
-3.09151e-08
-4.59738e-08
-2.72532e-08
-2.90525e-08
-2.28768e-08
-1.56692e-08
-1.7892e-08
-6.09794e-09
-1.24863e-08
-3.81765e-10
-6.98125e-09
1.80523e-09
-1.91848e-09
1.3348e-09
1.7931e-09
2.50927e-09
1.55254e-10
-2.58952e-09
-2.40359e-09
1.12302e-09
-9.35037e-09
9.45695e-09
-2.15222e-08
1.98735e-08
-3.91851e-08
3.08867e-08
-6.21925e-08
4.15575e-08
-9.0115e-08
5.13032e-08
-1.22341e-07
5.97799e-08
-1.58148e-07
6.67968e-08
-1.96755e-07
7.22628e-08
-2.37357e-07
7.61524e-08
-2.7915e-07
7.84843e-08
-3.21348e-07
7.93072e-08
-3.63198e-07
7.86902e-08
-4.03986e-07
7.67168e-08
-4.43046e-07
7.348e-08
-4.79761e-07
6.908e-08
-5.13572e-07
6.36217e-08
-5.43972e-07
5.72139e-08
-5.70518e-07
4.99683e-08
-5.92824e-07
4.19993e-08
-6.10569e-07
3.34238e-08
-6.23494e-07
2.43617e-08
-6.31407e-07
1.49354e-08
-6.34181e-07
5.27076e-09
-6.31762e-07
-4.50341e-09
-6.24163e-07
-1.42549e-08
-6.11469e-07
-2.38482e-08
-5.93841e-07
-3.31453e-08
-5.71512e-07
-4.20058e-08
-5.4479e-07
-5.0288e-08
-5.14059e-07
-5.78498e-08
-4.79777e-07
-6.45508e-08
-4.4247e-07
-7.02536e-08
-4.02737e-07
-7.48261e-08
-3.61239e-07
-7.81442e-08
-3.18692e-07
-8.00947e-08
-2.75866e-07
-8.05788e-08
-2.33565e-07
-7.95161e-08
-1.92622e-07
-7.68501e-08
-1.53874e-07
-7.25544e-08
-1.18147e-07
-6.6642e-08
-8.6222e-08
-5.91781e-08
-5.87992e-08
-5.02997e-08
-3.64447e-08
-4.02466e-08
-1.95203e-08
-2.94109e-08
-8.08633e-09
-1.84153e-08
-1.78091e-09
-8.22372e-09
3.30114e-10
-3.17658e-10
2.83928e-09
-1.37714e-09
-1.21239e-09
-7.52383e-09
7.26969e-09
-1.97082e-08
2.16413e-08
-3.85711e-08
3.87364e-08
-6.42578e-08
5.65735e-08
-9.65201e-08
7.38197e-08
-1.34815e-07
8.95985e-08
-1.78395e-07
1.03359e-07
-2.26373e-07
1.14776e-07
-2.77786e-07
1.23676e-07
-3.31629e-07
1.29995e-07
-3.86889e-07
1.33745e-07
-4.42571e-07
1.3499e-07
-4.97713e-07
1.33832e-07
-5.51399e-07
1.30403e-07
-6.02769e-07
1.24849e-07
-6.51025e-07
1.17336e-07
-6.9544e-07
1.08037e-07
-7.35357e-07
9.71317e-08
-7.70199e-07
8.48096e-08
-7.99463e-07
7.12634e-08
-8.2273e-07
5.66915e-08
-8.39666e-07
4.12972e-08
-8.5002e-07
2.52891e-08
-8.5363e-07
8.88094e-09
-8.50425e-07
-7.70826e-09
-8.40426e-07
-2.42541e-08
-8.23747e-07
-4.05271e-08
-8.00599e-07
-5.62938e-08
-7.71287e-07
-7.13174e-08
-7.36216e-07
-8.53594e-08
-6.95884e-07
-9.8182e-08
-6.50884e-07
-1.0955e-07
-6.01903e-07
-1.19235e-07
-5.4971e-07
-1.27019e-07
-4.95156e-07
-1.32698e-07
-4.39164e-07
-1.36087e-07
-3.82713e-07
-1.37029e-07
-3.2683e-07
-1.35399e-07
-2.72567e-07
-1.31114e-07
-2.20976e-07
-1.24145e-07
-1.73088e-07
-1.1453e-07
-1.29869e-07
-1.02397e-07
-9.21803e-08
-8.79884e-08
-6.07191e-08
-7.17078e-08
-3.59502e-08
-5.41799e-08
-1.8021e-08
-3.63447e-08
-6.66873e-09
-1.9576e-08
-1.12797e-09
-5.85823e-09
1.71133e-09
-3.01997e-09
1.80757e-09
-1.31096e-08
1.73593e-08
-3.09805e-08
3.95122e-08
-5.69418e-08
6.46977e-08
-9.09168e-08
9.05485e-08
-1.32493e-07
1.15395e-07
-1.80985e-07
1.38091e-07
-2.35504e-07
1.57879e-07
-2.95021e-07
1.74292e-07
-3.58413e-07
1.87067e-07
-4.2451e-07
1.96092e-07
-4.92131e-07
2.01366e-07
-5.60107e-07
2.02965e-07
-6.27302e-07
2.01027e-07
-6.92633e-07
1.95734e-07
-7.55079e-07
1.87295e-07
-8.13691e-07
1.75948e-07
-8.676e-07
1.61946e-07
-9.16024e-07
1.45556e-07
-9.5827e-07
1.27055e-07
-9.93738e-07
1.06731e-07
-1.02193e-06
8.48804e-08
-1.04244e-06
6.18058e-08
-1.05497e-06
3.78192e-08
-1.05932e-06
1.32401e-08
-1.05543e-06
-1.16041e-08
-1.0433e-06
-3.63785e-08
-1.02309e-06
-6.07412e-08
-9.9504e-07
-8.43446e-08
-9.5952e-07
-1.06837e-07
-9.17015e-07
-1.27865e-07
-8.6812e-07
-1.47076e-07
-8.13545e-07
-1.64126e-07
-7.54104e-07
-1.78676e-07
-6.90715e-07
-1.90409e-07
-6.24385e-07
-1.99027e-07
-5.56207e-07
-2.04265e-07
-4.87337e-07
-2.05899e-07
-4.18983e-07
-2.03753e-07
-3.52377e-07
-1.9772e-07
-2.88754e-07
-1.87769e-07
-2.29312e-07
-1.73972e-07
-1.75179e-07
-1.56529e-07
-1.27364e-07
-1.35804e-07
-8.67003e-08
-1.12371e-07
-5.37879e-08
-8.70924e-08
-2.89263e-08
-6.12065e-08
-1.20546e-08
-3.64479e-08
-2.70754e-09
-1.52053e-08
-9.96106e-10
-4.63981e-09
6.44737e-09
-1.87496e-08
3.1469e-08
-4.24618e-08
6.32244e-08
-7.56862e-08
9.7922e-08
-1.18059e-07
1.32921e-07
-1.68951e-07
1.66287e-07
-2.27502e-07
1.96642e-07
-2.92671e-07
2.23048e-07
-3.6328e-07
2.44901e-07
-4.38062e-07
2.61849e-07
-5.15702e-07
2.73732e-07
-5.94871e-07
2.80534e-07
-6.74252e-07
2.82346e-07
-7.52566e-07
2.79342e-07
-8.28589e-07
2.71756e-07
-9.01164e-07
2.59871e-07
-9.69216e-07
2.44001e-07
-1.03176e-06
2.24489e-07
-1.0879e-06
2.01699e-07
-1.13686e-06
1.76011e-07
-1.17794e-06
1.47817e-07
-1.21059e-06
1.17526e-07
-1.23434e-06
8.55538e-08
-1.24885e-06
5.23308e-08
-1.25391e-06
1.82966e-08
-1.24941e-06
-1.6098e-08
-1.2354e-06
-5.03922e-08
-1.21202e-06
-8.41161e-08
-1.17958e-06
-1.16792e-07
-1.13847e-06
-1.47939e-07
-1.08927e-06
-1.77072e-07
-1.03263e-06
-2.03712e-07
-9.69371e-07
-2.27385e-07
-9.00412e-07
-2.47635e-07
-8.26791e-07
-2.6403e-07
-7.4965e-07
-2.76168e-07
-6.70221e-07
-2.83694e-07
-5.89812e-07
-2.86308e-07
-5.09782e-07
-2.83783e-07
-4.31523e-07
-2.7598e-07
-3.56421e-07
-2.6287e-07
-2.85833e-07
-2.44561e-07
-2.21036e-07
-2.21326e-07
-1.63189e-07
-1.93651e-07
-1.1328e-07
-1.6228e-07
-7.2079e-08
-1.28293e-07
-4.00903e-08
-9.31952e-08
-1.75201e-08
-5.90182e-08
-4.27207e-09
-2.84534e-08
-5.26809e-09
-6.18495e-09
1.26323e-08
-2.42494e-08
4.95335e-08
-5.37824e-08
9.27574e-08
-9.42752e-08
1.38415e-07
-1.45041e-07
1.83687e-07
-2.052e-07
2.26445e-07
-2.73687e-07
2.6513e-07
-3.49287e-07
2.98648e-07
-4.30668e-07
3.26282e-07
-5.1642e-07
3.47601e-07
-6.05089e-07
3.62402e-07
-6.95213e-07
3.70659e-07
-7.85348e-07
3.7248e-07
-8.74087e-07
3.68081e-07
-9.60086e-07
3.57755e-07
-1.04207e-06
3.4186e-07
-1.11887e-06
3.20797e-07
-1.18939e-06
2.95007e-07
-1.25265e-06
2.6496e-07
-1.30778e-06
2.31145e-07
-1.35404e-06
1.94075e-07
-1.39079e-06
1.54277e-07
-1.41753e-06
1.12295e-07
-1.43389e-06
6.86883e-08
-1.43962e-06
2.40288e-08
-1.43463e-06
-2.10968e-08
-1.41893e-06
-6.60892e-08
-1.39271e-06
-1.10338e-07
-1.35628e-06
-1.53223e-07
-1.3101e-06
-1.94119e-07
-1.25477e-06
-2.32399e-07
-1.19104e-06
-2.67442e-07
-1.11979e-06
-2.98636e-07
-1.04203e-06
-3.25393e-07
-9.58906e-07
-3.47154e-07
-8.71669e-07
-3.63405e-07
-7.81673e-07
-3.7369e-07
-6.90353e-07
-3.77628e-07
-5.99206e-07
-3.7493e-07
-5.09762e-07
-3.65424e-07
-4.23555e-07
-3.49077e-07
-3.42086e-07
-3.26029e-07
-2.66788e-07
-2.96625e-07
-1.9898e-07
-2.61459e-07
-1.39827e-07
-2.21433e-07
-9.02989e-08
-1.77821e-07
-5.11428e-08
-1.32351e-07
-2.28681e-08
-8.72929e-08
-5.76787e-09
-4.55537e-08
-1.10359e-08
-7.64339e-09
2.02757e-08
-2.95365e-08
7.14265e-08
-6.478e-08
1.28001e-07
-1.12455e-07
1.8609e-07
-1.7154e-07
2.42771e-07
-2.40877e-07
2.95783e-07
-3.19179e-07
3.43431e-07
-4.05038e-07
3.84507e-07
-4.96955e-07
4.182e-07
-5.93373e-07
4.44019e-07
-6.92703e-07
4.61732e-07
-7.93356e-07
4.71311e-07
-8.93767e-07
4.72891e-07
-9.9242e-07
4.66734e-07
-1.08787e-06
4.532e-07
-1.17873e-06
4.32727e-07
-1.26375e-06
4.05814e-07
-1.34175e-06
3.73006e-07
-1.41167e-06
3.34884e-07
-1.47259e-06
2.9206e-07
-1.52368e-06
2.45172e-07
-1.56429e-06
1.94878e-07
-1.59385e-06
1.41857e-07
-1.61197e-06
8.68066e-08
-1.61838e-06
3.04421e-08
-1.61297e-06
-2.65046e-08
-1.59577e-06
-8.32856e-08
-1.56697e-06
-1.39139e-07
-1.5269e-06
-1.93293e-07
-1.47606e-06
-2.44967e-07
-1.41507e-06
-2.9338e-07
-1.34476e-06
-3.37759e-07
-1.26605e-06
-3.77344e-07
-1.18004e-06
-4.11401e-07
-1.08796e-06
-4.39237e-07
-9.91151e-07
-4.60213e-07
-8.91077e-07
-4.73764e-07
-7.89288e-07
-4.79417e-07
-6.87403e-07
-4.76815e-07
-5.87085e-07
-4.65742e-07
-4.90009e-07
-4.46154e-07
-3.97826e-07
-4.18212e-07
-3.12129e-07
-3.82321e-07
-2.34414e-07
-3.39174e-07
-1.66042e-07
-2.89805e-07
-1.08209e-07
-2.35653e-07
-6.19284e-08
-1.78632e-07
-2.80279e-08
-1.21193e-07
-7.18258e-09
-6.63991e-08
-1.82186e-08
-9.02097e-09
2.92966e-08
-3.46022e-08
9.70077e-08
-7.54115e-08
1.6881e-07
-1.30141e-07
2.4082e-07
-1.97432e-07
3.10062e-07
-2.75843e-07
3.74194e-07
-3.63843e-07
4.31431e-07
-4.59819e-07
4.80483e-07
-5.62096e-07
5.20476e-07
-6.6896e-07
5.50883e-07
-7.78685e-07
5.71457e-07
-8.89558e-07
5.82184e-07
-9.99901e-07
5.83234e-07
-1.10809e-06
5.74928e-07
-1.21259e-06
5.577e-07
-1.31194e-06
5.32078e-07
-1.40479e-06
4.98664e-07
-1.4899e-06
4.58116e-07
-1.56616e-06
4.11135e-07
-1.63256e-06
3.58462e-07
-1.68825e-06
3.00867e-07
-1.73252e-06
2.39147e-07
-1.76479e-06
1.74124e-07
-1.78462e-06
1.06642e-07
-1.79175e-06
3.75646e-08
-1.78603e-06
-3.22214e-08
-1.7675e-06
-1.01812e-07
-1.73636e-06
-1.70287e-07
-1.69294e-06
-2.36711e-07
-1.63776e-06
-3.00142e-07
-1.57151e-06
-3.59637e-07
-1.49501e-06
-4.14259e-07
-1.40926e-06
-4.63089e-07
-1.31542e-06
-5.0524e-07
-1.21479e-06
-5.39872e-07
-1.10879e-06
-5.66211e-07
-9.98982e-07
-5.83572e-07
-8.87023e-07
-5.91377e-07
-7.74648e-07
-5.89189e-07
-6.63649e-07
-5.7674e-07
-5.55843e-07
-5.5396e-07
-4.53037e-07
-5.21018e-07
-3.56996e-07
-4.78363e-07
-2.69406e-07
-4.26764e-07
-1.91844e-07
-3.67368e-07
-1.2575e-07
-3.01747e-07
-7.24182e-08
-2.31964e-07
-3.29968e-08
-1.60615e-07
-8.5234e-09
-9.08725e-08
-2.6742e-08
-1.03306e-08
3.96272e-08
-3.94693e-08
1.26146e-07
-8.5699e-08
2.1504e-07
-1.47347e-07
3.02467e-07
-2.22724e-07
3.8544e-07
-3.10099e-07
4.6157e-07
-4.0769e-07
5.29022e-07
-5.13668e-07
5.8646e-07
-6.26168e-07
6.32977e-07
-7.43316e-07
6.68031e-07
-8.63244e-07
6.91384e-07
-9.84113e-07
7.03053e-07
-1.10414e-06
7.03258e-07
-1.2216e-06
6.92389e-07
-1.33486e-06
6.70966e-07
-1.4424e-06
6.39619e-07
-1.5428e-06
5.99058e-07
-1.63475e-06
5.50063e-07
-1.71707e-06
4.93464e-07
-1.78875e-06
4.30136e-07
-1.84887e-06
3.60988e-07
-1.89669e-06
2.86963e-07
-1.93159e-06
2.09029e-07
-1.95313e-06
1.28183e-07
-1.96101e-06
4.54448e-08
-1.95509e-06
-3.81407e-08
-1.9354e-06
-1.21507e-07
-1.90212e-06
-2.03568e-07
-1.85561e-06
-2.83221e-07
-1.79639e-06
-3.59355e-07
-1.72518e-06
-4.30854e-07
-1.64283e-06
-4.9661e-07
-1.55038e-06
-5.55537e-07
-1.44903e-06
-6.06584e-07
-1.34015e-06
-6.48752e-07
-1.22524e-06
-6.8112e-07
-1.10595e-06
-7.0287e-07
-9.84015e-07
-7.13308e-07
-8.61303e-07
-7.11902e-07
-7.3973e-07
-6.98313e-07
-6.2126e-07
-6.72431e-07
-5.07862e-07
-6.34415e-07
-4.01487e-07
-5.84738e-07
-3.04026e-07
-5.24225e-07
-2.17287e-07
-4.54107e-07
-1.4297e-07
-3.76064e-07
-8.26544e-08
-2.92279e-07
-3.78071e-08
-2.05462e-07
-9.80577e-09
-1.18874e-07
-3.65478e-08
-1.15875e-08
5.12147e-08
-4.41753e-08
1.58734e-07
-9.56982e-08
2.66563e-07
-1.6414e-07
3.70909e-07
-2.47492e-07
4.68792e-07
-3.43734e-07
5.57811e-07
-4.50824e-07
6.36112e-07
-5.66708e-07
7.02345e-07
-6.89329e-07
7.55598e-07
-8.1664e-07
7.95342e-07
-9.46628e-07
8.21372e-07
-1.07733e-06
8.33753e-07
-1.20685e-06
8.32775e-07
-1.33337e-06
8.18912e-07
-1.45519e-06
7.92783e-07
-1.57069e-06
7.55127e-07
-1.67841e-06
7.06778e-07
-1.77699e-06
6.48642e-07
-1.86521e-06
5.81686e-07
-1.942e-06
5.06926e-07
-2.00643e-06
4.25415e-07
-2.05771e-06
3.38246e-07
-2.09522e-06
2.46539e-07
-2.11849e-06
1.51447e-07
-2.12719e-06
5.41487e-08
-2.12118e-06
-4.4148e-08
-2.10048e-06
-1.42211e-07
-2.06527e-06
-2.38783e-07
-2.0159e-06
-3.32591e-07
-1.95291e-06
-4.22345e-07
-1.87701e-06
-5.06753e-07
-1.78909e-06
-5.8453e-07
-1.69022e-06
-6.5441e-07
-1.58163e-06
-7.15167e-07
-1.46475e-06
-7.65634e-07
-1.34114e-06
-8.04731e-07
-1.21252e-06
-8.31488e-07
-1.08075e-06
-8.45082e-07
-9.47781e-07
-8.44867e-07
-8.15678e-07
-8.30416e-07
-6.86551e-07
-8.01557e-07
-5.62546e-07
-7.58421e-07
-4.45806e-07
-7.01478e-07
-3.38444e-07
-6.31587e-07
-2.42512e-07
-5.50039e-07
-1.59978e-07
-4.58598e-07
-9.27178e-08
-3.5954e-07
-4.25079e-08
-2.55672e-07
-1.10482e-08
-1.50333e-07
-4.75959e-08
-1.28068e-08
6.40215e-08
-4.87622e-08
1.94689e-07
-1.0548e-07
3.2328e-07
-1.80618e-07
4.46047e-07
-2.71855e-07
5.60029e-07
-3.76883e-07
6.62838e-07
-4.93399e-07
7.52628e-07
-6.19117e-07
8.28063e-07
-7.51777e-07
8.88258e-07
-8.89158e-07
9.32723e-07
-1.0291e-06
9.6131e-07
-1.1695e-06
9.74157e-07
-1.30836e-06
9.7164e-07
-1.44379e-06
9.54335e-07
-1.57398e-06
9.22977e-07
-1.69728e-06
8.78426e-07
-1.81215e-06
8.21649e-07
-1.9172e-06
7.53689e-07
-2.01117e-06
6.75656e-07
-2.09295e-06
5.88711e-07
-2.1616e-06
4.9406e-07
-2.2163e-06
3.92946e-07
-2.25641e-06
2.86646e-07
-2.28143e-06
1.76469e-07
-2.29104e-06
6.37568e-08
-2.28507e-06
-5.01197e-08
-2.26352e-06
-1.63759e-07
-2.22657e-06
-2.75733e-07
-2.17457e-06
-3.84591e-07
-2.10805e-06
-4.88865e-07
-2.02772e-06
-5.87078e-07
-1.93449e-06
-6.77759e-07
-1.82945e-06
-7.59456e-07
-1.71386e-06
-8.30758e-07
-1.58918e-06
-8.90316e-07
-1.45703e-06
-9.36874e-07
-1.31922e-06
-9.69299e-07
-1.17769e-06
-9.86614e-07
-1.03451e-06
-9.88043e-07
-8.91882e-07
-9.73048e-07
-7.52066e-07
-9.41373e-07
-6.17394e-07
-8.93093e-07
-4.90218e-07
-8.28653e-07
-3.72885e-07
-7.48921e-07
-2.67702e-07
-6.55221e-07
-1.7692e-07
-5.4938e-07
-1.02709e-07
-4.33751e-07
-4.71558e-08
-3.11225e-07
-1.22698e-08
-1.85219e-07
-5.98657e-08
-1.40025e-08
7.8024e-08
-5.32729e-08
2.3396e-07
-1.1512e-07
3.85127e-07
-1.96887e-07
5.27814e-07
-2.95948e-07
6.59091e-07
-4.09705e-07
7.76595e-07
-5.35594e-07
8.78517e-07
-6.71091e-07
9.6356e-07
-8.13728e-07
1.03089e-06
-9.61103e-07
1.0801e-06
-1.1109e-06
1.11111e-06
-1.2609e-06
1.12415e-06
-1.40898e-06
1.11973e-06
-1.55316e-06
1.09852e-06
-1.69158e-06
1.0614e-06
-1.82252e-06
1.00936e-06
-1.94439e-06
9.43517e-07
-2.05576e-06
8.65059e-07
-2.15535e-06
7.75246e-07
-2.24203e-06
6.75391e-07
-2.31482e-06
5.66853e-07
-2.3729e-06
4.5103e-07
-2.41561e-06
3.29356e-07
-2.44244e-06
2.03299e-07
-2.45305e-06
7.43612e-08
-2.44725e-06
-5.59217e-08
-2.42503e-06
-1.8598e-07
-2.38655e-06
-3.14213e-07
-2.33215e-06
-4.38992e-07
-2.26235e-06
-5.58665e-07
-2.17786e-06
-6.71568e-07
-2.07958e-06
-7.76038e-07
-1.9686e-06
-8.70429e-07
-1.84623e-06
-9.53132e-07
-1.71394e-06
-1.0226e-06
-1.57342e-06
-1.07739e-06
-1.42653e-06
-1.11619e-06
-1.2753e-06
-1.13784e-06
-1.12193e-06
-1.14141e-06
-9.68742e-07
-1.12624e-06
-8.18172e-07
-1.09194e-06
-6.72741e-07
-1.03852e-06
-5.35021e-07
-9.66373e-07
-4.07604e-07
-8.76338e-07
-2.93068e-07
-7.69757e-07
-1.93953e-07
-6.48495e-07
-1.12734e-07
-5.1497e-07
-5.18092e-08
-3.7215e-07
-1.34891e-08
-2.2354e-07
-7.33547e-08
-1.51876e-08
9.32116e-08
-5.77476e-08
2.7652e-07
-1.24692e-07
4.52071e-07
-2.13056e-07
6.16178e-07
-3.19909e-07
7.65944e-07
-4.42366e-07
8.99052e-07
-5.77594e-07
1.01374e-06
-7.2283e-07
1.1088e-06
-8.75391e-07
1.18346e-06
-1.03269e-06
1.2374e-06
-1.19226e-06
1.27068e-06
-1.35174e-06
1.28364e-06
-1.50892e-06
1.2769e-06
-1.66172e-06
1.25132e-06
-1.80821e-06
1.20789e-06
-1.94663e-06
1.14777e-06
-2.07534e-06
1.07223e-06
-2.19289e-06
9.82609e-07
-2.29797e-06
8.80331e-07
-2.38945e-06
7.66865e-07
-2.46632e-06
6.43726e-07
-2.52776e-06
5.12468e-07
-2.57308e-06
3.74682e-07
-2.60177e-06
2.31993e-07
-2.61348e-06
8.60629e-08
-2.60799e-06
-6.14097e-08
-2.58528e-06
-2.08689e-07
-2.54549e-06
-3.54003e-07
-2.48894e-06
-4.95544e-07
-2.41612e-06
-6.31478e-07
-2.32774e-06
-7.59949e-07
-2.22468e-06
-8.79096e-07
-2.10805e-06
-9.87069e-07
-1.97913e-06
-1.08205e-06
-1.83944e-06
-1.16229e-06
-1.6907e-06
-1.22613e-06
-1.53485e-06
-1.27205e-06
-1.37399e-06
-1.2987e-06
-1.21043e-06
-1.30497e-06
-1.04665e-06
-1.29002e-06
-8.85239e-07
-1.25335e-06
-7.2893e-07
-1.19483e-06
-5.80522e-07
-1.11478e-06
-4.42867e-07
-1.01399e-06
-3.18826e-07
-8.93798e-07
-2.11241e-07
-7.5608e-07
-1.22904e-07
-6.03307e-07
-5.65257e-08
-4.38527e-07
-1.47238e-08
-2.65341e-07
-8.80785e-08
-1.63735e-08
1.09585e-07
-6.22238e-08
3.2237e-07
-1.34266e-07
5.24113e-07
-2.29227e-07
7.1114e-07
-3.43873e-07
8.8059e-07
-4.75025e-07
1.0302e-06
-6.19577e-07
1.1583e-06
-7.74521e-07
1.26374e-06
-9.36958e-07
1.34589e-06
-1.10411e-06
1.40456e-06
-1.27336e-06
1.43992e-06
-1.44221e-06
1.45248e-06
-1.60834e-06
1.44303e-06
-1.76959e-06
1.41257e-06
-1.92398e-06
1.36228e-06
-2.06969e-06
1.29348e-06
-2.20507e-06
1.20761e-06
-2.32864e-06
1.10617e-06
-2.43907e-06
9.90767e-07
-2.53522e-06
8.63016e-07
-2.61609e-06
7.24596e-07
-2.68084e-06
5.77219e-07
-2.72879e-06
4.22629e-07
-2.7594e-06
2.62606e-07
-2.77231e-06
9.8968e-08
-2.76729e-06
-6.64288e-08
-2.74429e-06
-2.31686e-07
-2.70343e-06
-3.94863e-07
-2.645e-06
-5.53977e-07
-2.56947e-06
-7.07009e-07
-2.47751e-06
-8.51912e-07
-2.36998e-06
-9.86621e-07
-2.24797e-06
-1.10908e-06
-2.11278e-06
-1.21724e-06
-1.96594e-06
-1.30914e-06
-1.80918e-06
-1.38288e-06
-1.6445e-06
-1.43673e-06
-1.47409e-06
-1.46911e-06
-1.30038e-06
-1.47869e-06
-1.12596e-06
-1.46444e-06
-9.53619e-07
-1.42569e-06
-7.86293e-07
-1.36216e-06
-6.27025e-07
-1.27405e-06
-4.78938e-07
-1.16208e-06
-3.45192e-07
-1.02754e-06
-2.28947e-07
-8.72324e-07
-1.33323e-07
-6.98931e-07
-6.13605e-08
-5.1049e-07
-1.59906e-08
-3.10711e-07
-1.04069e-07
-1.75704e-08
1.27155e-07
-6.67355e-08
3.71535e-07
-1.43907e-07
6.01284e-07
-2.45499e-07
8.12732e-07
-3.67966e-07
1.00306e-06
-5.07828e-07
1.17007e-06
-6.61705e-07
1.31217e-06
-8.26334e-07
1.42837e-06
-9.98594e-07
1.51815e-06
-1.17552e-06
1.58148e-06
-1.35432e-06
1.61872e-06
-1.53239e-06
1.63055e-06
-1.7073e-06
1.61794e-06
-1.87681e-06
1.58209e-06
-2.03889e-06
1.52436e-06
-2.19167e-06
1.44627e-06
-2.3335e-06
1.34943e-06
-2.46287e-06
1.23555e-06
-2.57848e-06
1.10637e-06
-2.67916e-06
9.63693e-07
-2.76391e-06
8.09356e-07
-2.83192e-06
6.45222e-07
-2.88248e-06
4.7319e-07
-2.91506e-06
2.95188e-07
-2.92928e-06
1.13184e-07
-2.92489e-06
-7.08144e-08
-2.90183e-06
-2.54752e-07
-2.86016e-06
-4.36526e-07
-2.80016e-06
-6.13982e-07
-2.72225e-06
-7.84921e-07
-2.62706e-06
-9.47101e-07
-2.51542e-06
-1.09825e-06
-2.3884e-06
-1.2361e-06
-2.24727e-06
-1.35837e-06
-2.09356e-06
-1.46285e-06
-1.92903e-06
-1.54741e-06
-1.75572e-06
-1.61004e-06
-1.57589e-06
-1.64894e-06
-1.39206e-06
-1.66252e-06
-1.20699e-06
-1.64952e-06
-1.02363e-06
-1.60904e-06
-8.45142e-07
-1.54065e-06
-6.74818e-07
-1.44437e-06
-5.1607e-07
-1.32083e-06
-3.72375e-07
-1.17124e-06
-2.47228e-07
-9.97471e-07
-1.44096e-07
-8.02063e-07
-6.63666e-08
-5.88219e-07
-1.73051e-08
-3.59773e-07
-1.21374e-07
-1.87875e-08
1.45943e-07
-7.13137e-08
4.24061e-07
-1.53675e-07
6.83646e-07
-2.61961e-07
9.21018e-07
-3.92302e-07
1.1334e-06
-5.40912e-07
1.31868e-06
-7.04122e-07
1.47538e-06
-8.7841e-07
1.60266e-06
-1.06043e-06
1.70017e-06
-1.24702e-06
1.76808e-06
-1.43523e-06
1.80693e-06
-1.62232e-06
1.81764e-06
-1.80578e-06
1.8014e-06
-1.98329e-06
1.7596e-06
-2.15278e-06
1.69385e-06
-2.31236e-06
1.60585e-06
-2.46036e-06
1.49743e-06
-2.59528e-06
1.37047e-06
-2.71581e-06
1.2269e-06
-2.82081e-06
1.0687e-06
-2.90931e-06
8.97852e-07
-2.98047e-06
7.16382e-07
-3.03361e-06
5.26331e-07
-3.06819e-06
3.29772e-07
-3.08382e-06
1.28814e-07
-3.08024e-06
-7.43939e-08
-3.05735e-06
-2.77649e-07
-3.01518e-06
-4.78693e-07
-2.95395e-06
-6.7521e-07
-2.87405e-06
-8.64822e-07
-2.77605e-06
-1.0451e-06
-2.66075e-06
-1.21356e-06
-2.52914e-06
-1.36771e-06
-2.38248e-06
-1.50503e-06
-2.22228e-06
-1.62306e-06
-2.0503e-06
-1.71939e-06
-1.86861e-06
-1.79174e-06
-1.67953e-06
-1.83801e-06
-1.4857e-06
-1.85635e-06
-1.28999e-06
-1.84523e-06
-1.09555e-06
-1.80348e-06
-9.05755e-07
-1.73044e-06
-7.24168e-07
-1.62596e-06
-5.54503e-07
-1.49049e-06
-4.00572e-07
-1.32517e-06
-2.66231e-07
-1.13181e-06
-1.55318e-07
-9.12976e-07
-7.1594e-08
-6.71944e-07
-1.86819e-08
-4.12685e-07
-1.40056e-07
-2.00332e-08
1.65976e-07
-7.59871e-08
4.80015e-07
-1.63625e-07
7.71284e-07
-2.78694e-07
1.03609e-06
-4.16987e-07
1.27169e-06
-5.74395e-07
1.47608e-06
-7.46951e-07
1.64794e-06
-9.30865e-07
1.78657e-06
-1.12255e-06
1.89186e-06
-1.31866e-06
1.96418e-06
-1.51608e-06
2.00435e-06
-1.71195e-06
2.01351e-06
-1.90365e-06
1.9931e-06
-2.08884e-06
1.94479e-06
-2.26538e-06
1.87039e-06
-2.43139e-06
1.77186e-06
-2.58519e-06
1.65123e-06
-2.72531e-06
1.51059e-06
-2.85046e-06
1.35205e-06
-2.95952e-06
1.17776e-06
-3.05154e-06
9.89872e-07
-3.12572e-06
7.90553e-07
-3.18137e-06
5.81983e-07
-3.21797e-06
3.6637e-07
-3.2351e-06
1.45952e-07
-3.23251e-06
-7.69893e-08
-3.21004e-06
-3.00118e-07
-3.1677e-06
-5.21032e-07
-3.10565e-06
-7.37261e-07
-3.02421e-06
-9.46259e-07
-2.9239e-06
-1.14541e-06
-2.80544e-06
-1.33202e-06
-2.66977e-06
-1.50338e-06
-2.51809e-06
-1.65671e-06
-2.35187e-06
-1.78928e-06
-2.17286e-06
-1.89839e-06
-1.98314e-06
-1.98146e-06
-1.7851e-06
-2.03606e-06
-1.58142e-06
-2.06003e-06
-1.37515e-06
-2.0515e-06
-1.1696e-06
-2.00903e-06
-9.68372e-07
-1.93167e-06
-7.75313e-07
-1.81902e-06
-5.94455e-07
-1.67135e-06
-4.29971e-07
-1.48966e-06
-2.861e-07
-1.27568e-06
-1.67085e-07
-1.03199e-06
-7.70909e-08
-7.61938e-07
-2.01352e-08
-4.6964e-07
-1.60191e-07
-2.13156e-08
1.87291e-07
-8.0783e-08
5.39482e-07
-1.73809e-07
8.64309e-07
-2.95775e-07
1.15805e-06
-4.42118e-07
1.41803e-06
-6.08386e-07
1.64235e-06
-7.90298e-07
1.82985e-06
-9.83783e-07
1.98006e-06
-1.18502e-06
2.09309e-06
-1.39045e-06
2.16962e-06
-1.59681e-06
2.21071e-06
-1.80112e-06
2.21782e-06
-2.0007e-06
2.19267e-06
-2.19312e-06
2.13721e-06
-2.37626e-06
2.05353e-06
-2.54823e-06
1.94383e-06
-2.70737e-06
1.81037e-06
-2.85224e-06
1.65546e-06
-2.9816e-06
1.48141e-06
-3.09436e-06
1.29053e-06
-3.18962e-06
1.08513e-06
-3.2666e-06
8.67527e-07
-3.32464e-06
6.40028e-07
-3.36323e-06
4.0496e-07
-3.38195e-06
1.64678e-07
-3.38052e-06
-7.84206e-08
-3.35876e-06
-3.21879e-07
-3.31662e-06
-5.63169e-07
-3.25421e-06
-7.99678e-07
-3.17176e-06
-1.0287e-06
-3.06972e-06
-1.24745e-06
-2.94872e-06
-1.45302e-06
-2.80962e-06
-1.64247e-06
-2.65355e-06
-1.81278e-06
-2.48191e-06
-1.96092e-06
-2.29642e-06
-2.08388e-06
-2.09915e-06
-2.17873e-06
-1.8925e-06
-2.24271e-06
-1.67926e-06
-2.27327e-06
-1.46257e-06
-2.26819e-06
-1.24594e-06
-2.22567e-06
-1.03319e-06
-2.14441e-06
-8.28461e-07
-2.02375e-06
-6.36127e-07
-1.86369e-06
-4.60743e-07
-1.66504e-06
-3.06969e-07
-1.42946e-06
-1.79485e-07
-1.15948e-06
-8.29037e-08
-8.58519e-07
-2.16786e-08
-5.30866e-07
-1.8187e-07
-2.26424e-08
2.09934e-07
-8.57284e-08
6.02568e-07
-1.84278e-07
9.62859e-07
-3.13281e-07
1.28706e-06
-4.67787e-07
1.57254e-06
-6.42981e-07
1.81755e-06
-8.34248e-07
2.02112e-06
-1.03723e-06
2.18303e-06
-1.24784e-06
2.30371e-06
-1.46234e-06
2.38411e-06
-1.67729e-06
2.42567e-06
-1.88962e-06
2.43015e-06
-2.09656e-06
2.39962e-06
-2.29567e-06
2.33633e-06
-2.48483e-06
2.24268e-06
-2.66215e-06
2.12115e-06
-2.82603e-06
1.97425e-06
-2.97509e-06
1.80451e-06
-3.10813e-06
1.61444e-06
-3.22413e-06
1.40653e-06
-3.32225e-06
1.18324e-06
-3.40174e-06
9.47017e-07
-3.46199e-06
7.00283e-07
-3.50251e-06
4.45475e-07
-3.52287e-06
1.85045e-07
-3.52278e-06
-7.85102e-08
-3.50203e-06
-3.42635e-07
-3.46051e-06
-6.04691e-07
-3.39824e-06
-8.61942e-07
-3.3154e-06
-1.11154e-06
-3.21232e-06
-1.35053e-06
-3.08952e-06
-1.57582e-06
-2.94776e-06
-1.78423e-06
-2.78807e-06
-1.97248e-06
-2.61175e-06
-2.13723e-06
-2.42048e-06
-2.27515e-06
-2.21627e-06
-2.38294e-06
-2.00154e-06
-2.45744e-06
-1.77912e-06
-2.49569e-06
-1.55227e-06
-2.49504e-06
-1.32465e-06
-2.45328e-06
-1.10035e-06
-2.36872e-06
-8.83786e-07
-2.24031e-06
-6.79697e-07
-2.06778e-06
-4.93051e-07
-1.85168e-06
-3.28966e-07
-1.59354e-06
-1.92606e-07
-1.29584e-06
-8.90784e-08
-9.62047e-07
-2.33257e-08
-5.96618e-07
-2.05196e-07
-2.40221e-08
2.33956e-07
-9.08514e-08
6.69398e-07
-1.95086e-07
1.06709e-06
-3.31287e-07
1.42326e-06
-4.94084e-07
1.73534e-06
-6.78271e-07
2.00173e-06
-8.78876e-07
2.22172e-06
-1.09122e-06
2.39538e-06
-1.31099e-06
2.52347e-06
-1.5342e-06
2.60733e-06
-1.7573e-06
2.64876e-06
-1.97709e-06
2.64994e-06
-2.19077e-06
2.61329e-06
-2.39588e-06
2.54144e-06
-2.5903e-06
2.43711e-06
-2.77223e-06
2.30308e-06
-2.9401e-06
2.14213e-06
-3.09262e-06
1.95703e-06
-3.22868e-06
1.7505e-06
-3.34734e-06
1.52519e-06
-3.44781e-06
1.28372e-06
-3.52943e-06
1.02864e-06
-3.59164e-06
7.62493e-07
-3.63396e-06
4.87794e-07
-3.65599e-06
2.07077e-07
-3.65742e-06
-7.70888e-08
-3.63798e-06
-3.6207e-07
-3.59753e-06
-6.45142e-07
-3.536e-06
-9.23468e-07
-3.45347e-06
-1.19408e-06
-3.35014e-06
-1.45386e-06
-3.22642e-06
-1.69955e-06
-3.08292e-06
-1.92773e-06
-2.92055e-06
-2.13485e-06
-2.74049e-06
-2.31729e-06
-2.54431e-06
-2.47133e-06
-2.33395e-06
-2.5933e-06
-2.11182e-06
-2.67957e-06
-1.88077e-06
-2.72674e-06
-1.64414e-06
-2.73167e-06
-1.40576e-06
-2.69166e-06
-1.16994e-06
-2.60453e-06
-9.41424e-07
-2.46883e-06
-7.25319e-07
-2.28388e-06
-5.27044e-07
-2.04996e-06
-3.52215e-07
-1.76837e-06
-2.06534e-07
-1.44152e-06
-9.56605e-08
-1.07292e-06
-2.50903e-08
-6.67189e-07
-2.30286e-07
-2.54638e-08
2.5942e-07
-9.61831e-08
7.40117e-07
-2.06291e-07
1.1772e-06
-3.49875e-07
1.56684e-06
-5.21106e-07
1.90657e-06
-7.14348e-07
2.19498e-06
-9.24245e-07
2.43162e-06
-1.14579e-06
2.61693e-06
-1.37439e-06
2.75207e-06
-1.60588e-06
2.83882e-06
-1.83654e-06
2.87942e-06
-2.0631e-06
2.8765e-06
-2.28271e-06
2.83291e-06
-2.49295e-06
2.75167e-06
-2.69173e-06
2.63589e-06
-2.87731e-06
2.48866e-06
-3.04826e-06
2.31307e-06
-3.20335e-06
2.11212e-06
-3.34159e-06
1.88874e-06
-3.46216e-06
1.64576e-06
-3.56437e-06
1.38592e-06
-3.64763e-06
1.1119e-06
-3.71145e-06
8.26308e-07
-3.75538e-06
5.31731e-07
-3.77906e-06
2.30754e-07
-3.78215e-06
-7.40029e-08
-3.76436e-06
-3.79857e-07
-3.72547e-06
-6.84027e-07
-3.66534e-06
-9.836e-07
-3.58391e-06
-1.27551e-06
-3.48126e-06
-1.55651e-06
-3.35764e-06
-1.82317e-06
-3.21351e-06
-2.07186e-06
-3.04958e-06
-2.29878e-06
-2.86691e-06
-2.49996e-06
-2.6669e-06
-2.67134e-06
-2.45141e-06
-2.80879e-06
-2.22277e-06
-2.90822e-06
-1.98381e-06
-2.96569e-06
-1.73796e-06
-2.97753e-06
-1.48917e-06
-2.94044e-06
-1.24199e-06
-2.85171e-06
-1.00147e-06
-2.70935e-06
-7.73128e-07
-2.51222e-06
-5.62861e-07
-2.26023e-06
-3.76837e-07
-1.95439e-06
-2.21354e-07
-1.597e-06
-1.02697e-07
-1.19158e-06
-2.69867e-08
-7.42899e-07
-2.57272e-07
-2.69782e-08
2.86398e-07
-1.01759e-07
8.14898e-07
-2.17959e-07
1.2934e-06
-3.69136e-07
1.71802e-06
-5.48955e-07
2.08639e-06
-7.51306e-07
2.39733e-06
-9.70415e-07
2.65073e-06
-1.20093e-06
2.84744e-06
-1.43796e-06
2.98911e-06
-1.67714e-06
3.078e-06
-1.91463e-06
3.11691e-06
-2.14708e-06
3.10895e-06
-2.37165e-06
3.05747e-06
-2.58593e-06
2.96595e-06
-2.78793e-06
2.83789e-06
-2.97603e-06
2.67676e-06
-3.1489e-06
2.48594e-06
-3.30547e-06
2.26869e-06
-3.44488e-06
2.02816e-06
-3.56646e-06
1.76733e-06
-3.66962e-06
1.48908e-06
-3.75389e-06
1.19617e-06
-3.81885e-06
8.91274e-07
-3.86414e-06
5.77014e-07
-3.88939e-06
2.56004e-07
-3.89427e-06
-6.91221e-08
-3.87846e-06
-3.95663e-07
-3.84168e-06
-7.2081e-07
-3.78367e-06
-1.04161e-06
-3.70425e-06
-1.35493e-06
-3.60335e-06
-1.65742e-06
-3.48102e-06
-1.9455e-06
-3.33753e-06
-2.21535e-06
-3.1734e-06
-2.4629e-06
-2.98948e-06
-2.68389e-06
-2.78698e-06
-2.87383e-06
-2.56761e-06
-3.02816e-06
-2.33358e-06
-3.14225e-06
-2.08769e-06
-3.21159e-06
-1.83337e-06
-3.23185e-06
-1.57471e-06
-3.1991e-06
-1.31646e-06
-3.10997e-06
-1.06398e-06
-2.96183e-06
-8.23234e-07
-2.75297e-06
-6.00633e-07
-2.48283e-06
-4.02952e-07
-2.15208e-06
-2.37156e-07
-1.7628e-06
-1.10238e-07
-1.3185e-06
-2.90303e-08
-8.24107e-07
-2.86303e-07
-2.85782e-08
3.14976e-07
-1.07623e-07
8.93943e-07
-2.30169e-07
1.41595e-06
-3.89182e-07
1.87703e-06
-5.77755e-07
2.27496e-06
-7.89254e-07
2.60882e-06
-1.01745e-06
2.87892e-06
-1.2566e-06
3.08659e-06
-1.50154e-06
3.23405e-06
-1.74769e-06
3.32416e-06
-1.99109e-06
3.36031e-06
-2.22835e-06
3.34621e-06
-2.45665e-06
3.28577e-06
-2.67366e-06