/*--------------------------------*- C++ -*----------------------------------*\
| =========                 |                                                 |
| \\      /  F ield         | OpenFOAM: The Open Source CFD Toolbox           |
|  \\    /   O peration     | Version:  v2012                                 |
|   \\  /    A nd           | Website:  www.openfoam.com                      |
|    \\/     M anipulation  |                                                 |
\*---------------------------------------------------------------------------*/
FoamFile
{
    version     2.0;
    format      ascii;
    class       volVectorField;
    location    "0.25";
    object      U;
}
// * * * * * * * * * * * * * * * * * * * * * * * * * * * * * * * * * * * * * //

dimensions      [0 1 -1 0 0 0 0];


internalField   nonuniform List<vector> 
2500
(
(3.27596e-05 -3.26958e-05 0)
(9.88824e-05 -4.064e-05 0)
(0.000137326 -2.09424e-05 0)
(0.000106215 7.8676e-06 0)
(-8.73694e-06 3.77294e-05 0)
(-0.000205993 6.53341e-05 0)
(-0.00047822 8.93686e-05 0)
(-0.000815602 0.000109419 0)
(-0.0012072 0.000125461 0)
(-0.00164175 0.000137632 0)
(-0.00210809 0.000146138 0)
(-0.00259543 0.000151211 0)
(-0.00309349 0.00015309 0)
(-0.00359255 0.000152019 0)
(-0.00408357 0.000148234 0)
(-0.00455814 0.000141969 0)
(-0.00500856 0.000133454 0)
(-0.00542783 0.000122913 0)
(-0.00580964 0.000110565 0)
(-0.00614839 9.66273e-05 0)
(-0.00643919 8.13175e-05 0)
(-0.00667787 6.48522e-05 0)
(-0.00686101 4.74514e-05 0)
(-0.0069859 2.9339e-05 0)
(-0.00705061 1.0745e-05 0)
(-0.00705401 -8.09328e-06 0)
(-0.00699574 -2.69304e-05 0)
(-0.00687631 -4.55118e-05 0)
(-0.00669705 -6.3574e-05 0)
(-0.0064602 -8.08453e-05 0)
(-0.00616887 -9.70466e-05 0)
(-0.00582709 -0.000111893 0)
(-0.00543982 -0.000125098 0)
(-0.00501292 -0.000136371 0)
(-0.00455314 -0.000145427 0)
(-0.00406811 -0.000151987 0)
(-0.0035663 -0.000155781 0)
(-0.00305692 -0.000156557 0)
(-0.00254989 -0.000154078 0)
(-0.0020557 -0.000148133 0)
(-0.00158534 -0.000138537 0)
(-0.00115006 -0.000125141 0)
(-0.000761212 -0.000107851 0)
(-0.000429927 -8.66643e-05 0)
(-0.000166602 -6.17649e-05 0)
(1.99058e-05 -3.37431e-05 0)
(0.000123659 -4.0805e-06 0)
(0.000144839 2.37726e-05 0)
(9.97843e-05 4.17505e-05 0)
(3.21158e-05 3.20433e-05 0)
(4.11201e-05 -9.90262e-05 0)
(9.39737e-05 -9.28594e-05 0)
(4.55189e-05 1.45495e-05 0)
(-0.000168681 0.000161833 0)
(-0.00057557 0.000318264 0)
(-0.00117649 0.000467833 0)
(-0.00195909 0.000602213 0)
(-0.00290312 0.000717342 0)
(-0.00398392 0.000811478 0)
(-0.00517458 0.000884161 0)
(-0.00644745 0.000935663 0)
(-0.00777499 0.000966696 0)
(-0.00913042 0.000978238 0)
(-0.0104881 0.00097143 0)
(-0.0118238 0.000947512 0)
(-0.0131148 0.00090779 0)
(-0.0143403 0.000853603 0)
(-0.0154812 0.000786316 0)
(-0.0165201 0.000707308 0)
(-0.0174417 0.000617973 0)
(-0.0182325 0.000519723 0)
(-0.0188813 0.000413988 0)
(-0.0193784 0.000302225 0)
(-0.0197168 0.000185924 0)
(-0.019891 6.66116e-05 0)
(-0.0198982 -5.41421e-05 0)
(-0.0197374 -0.000174722 0)
(-0.0194103 -0.000293465 0)
(-0.0189207 -0.000408667 0)
(-0.0182749 -0.000518581 0)
(-0.0174814 -0.000621436 0)
(-0.0165516 -0.000715442 0)
(-0.0154989 -0.00079881 0)
(-0.0143394 -0.000869772 0)
(-0.0130913 -0.000926609 0)
(-0.0117754 -0.000967672 0)
(-0.0104143 -0.000991424 0)
(-0.00903252 -0.000996469 0)
(-0.00765631 -0.000981601 0)
(-0.00631313 -0.000945851 0)
(-0.00503127 -0.000888555 0)
(-0.0038393 -0.000809457 0)
(-0.00276527 -0.000708863 0)
(-0.00183569 -0.000587925 0)
(-0.00107395 -0.000449147 0)
(-0.00049814 -0.000297373 0)
(-0.000117627 -0.00014162 0)
(7.24124e-05 1.62194e-06 0)
(0.000102908 0.000101798 0)
(4.21458e-05 9.9784e-05 0)
(2.2506e-05 -0.000139167 0)
(-9.99931e-06 -4.56618e-05 0)
(-0.000233986 0.000239609 0)
(-0.000705738 0.000609139 0)
(-0.00145106 0.00100253 0)
(-0.00247147 0.00138346 0)
(-0.00375119 0.00173038 0)
(-0.00526312 0.00203119 0)
(-0.00697319 0.00227956 0)
(-0.0088433 0.00247272 0)
(-0.0108334 0.00261021 0)
(-0.012903 0.00269304 0)
(-0.0150123 0.00272316 0)
(-0.0171225 0.0027032 0)
(-0.019197 0.0026362 0)
(-0.0212011 0.00252551 0)
(-0.0231027 0.00237467 0)
(-0.0248724 0.00218735 0)
(-0.0264836 0.00196732 0)
(-0.0279123 0.00171846 0)
(-0.029138 0.00144471 0)
(-0.0301428 0.00115007 0)
(-0.0309124 0.000838662 0)
(-0.0314353 0.000514683 0)
(-0.0317036 0.000182442 0)
(-0.0317127 -0.000153638 0)
(-0.0314616 -0.000489021 0)
(-0.0309528 -0.000819052 0)
(-0.0301923 -0.00113897 0)
(-0.02919 -0.00144394 0)
(-0.0279595 -0.00172906 0)
(-0.026518 -0.0019894 0)
(-0.0248866 -0.00222009 0)
(-0.0230899 -0.00241633 0)
(-0.0211562 -0.0025735 0)
(-0.0191169 -0.00268724 0)
(-0.0170066 -0.00275351 0)
(-0.0148626 -0.00276878 0)
(-0.0127244 -0.0027301 0)
(-0.010633 -0.00263531 0)
(-0.00863052 -0.00248324 0)
(-0.00675878 -0.00227402 0)
(-0.00505838 -0.00200959 0)
(-0.00356687 -0.00169437 0)
(-0.00231666 -0.00133649 0)
(-0.00133196 -0.00094984 0)
(-0.000624677 -0.000557459 0)
(-0.000188754 -0.000196592 0)
(7.08044e-06 7.27533e-05 0)
(2.5353e-05 0.000146432 0)
(-4.89565e-06 -0.000112213 0)
(-0.000153813 0.000164555 0)
(-0.000599924 0.000710188 0)
(-0.00137298 0.0013797 0)
(-0.00248767 0.00208501 0)
(-0.00394135 0.00276877 0)
(-0.00571339 0.00339439 0)
(-0.00777045 0.00393958 0)
(-0.0100709 0.0043916 0)
(-0.0125679 0.00474406 0)
(-0.0152118 0.00499486 0)
(-0.0179518 0.00514484 0)
(-0.0207374 0.00519685 0)
(-0.0235197 0.00515519 0)
(-0.0262514 0.00502511 0)
(-0.028888 0.00481258 0)
(-0.0313881 0.00452403 0)
(-0.0337135 0.00416628 0)
(-0.0358294 0.0037464 0)
(-0.0377051 0.0032717 0)
(-0.0393134 0.00274964 0)
(-0.0406314 0.0021879 0)
(-0.0416401 0.00159433 0)
(-0.0423249 0.000976962 0)
(-0.0426754 0.00034405 0)
(-0.0426859 -0.000295952 0)
(-0.0423549 -0.00093438 0)
(-0.041686 -0.00156237 0)
(-0.0406871 -0.00217088 0)
(-0.0393712 -0.00275074 0)
(-0.037756 -0.00329268 0)
(-0.0358642 -0.00378747 0)
(-0.033723 -0.00422594 0)
(-0.0313644 -0.00459918 0)
(-0.028825 -0.00489862 0)
(-0.0261454 -0.00511624 0)
(-0.0233699 -0.00524476 0)
(-0.0205465 -0.00527787 0)
(-0.0177253 -0.0052105 0)
(-0.0149586 -0.00503917 0)
(-0.0122993 -0.00476245 0)
(-0.00979996 -0.00438151 0)
(-0.00751093 -0.00390096 0)
(-0.00547852 -0.00333011 0)
(-0.00374246 -0.00268478 0)
(-0.00233284 -0.00199025 0)
(-0.00126581 -0.00128564 0)
(-0.000538641 -0.000629862 0)
(-0.000129763 -0.000110786 0)
(-5.94623e-07 0.000130205 0)
(-3.36789e-05 -3.29337e-06 0)
(-0.000309958 0.000567764 0)
(-0.00100004 0.00145801 0)
(-0.00209752 0.00249705 0)
(-0.00359936 0.00357461 0)
(-0.0054949 0.00461479 0)
(-0.00775647 0.00556653 0)
(-0.0103438 0.00639701 0)
(-0.0132081 0.00708633 0)
(-0.0162951 0.00762367 0)
(-0.019547 0.00800466 0)
(-0.0229046 0.00822957 0)
(-0.0263088 0.008302 0)
(-0.0297019 0.00822791 0)
(-0.0330281 0.00801501 0)
(-0.0362347 0.00767225 0)
(-0.0392725 0.0072095 0)
(-0.0420958 0.0066373 0)
(-0.0446633 0.00596672 0)
(-0.046938 0.00520925 0)
(-0.0488877 0.00437672 0)
(-0.0504847 0.0034813 0)
(-0.0517065 0.00253549 0)
(-0.0525355 0.00155208 0)
(-0.0529595 0.000544211 0)
(-0.0529714 -0.000474666 0)
(-0.0525699 -0.00149078 0)
(-0.051759 -0.00249005 0)
(-0.0505485 -0.00345817 0)
(-0.048954 -0.00438063 0)
(-0.0469966 -0.00524284 0)
(-0.0447035 -0.00603027 0)
(-0.0421073 -0.00672858 0)
(-0.0392462 -0.00732385 0)
(-0.0361635 -0.00780278 0)
(-0.0329074 -0.00815302 0)
(-0.0295308 -0.00836345 0)
(-0.0260899 -0.0084246 0)
(-0.0226441 -0.00832904 0)
(-0.0192548 -0.008072 0)
(-0.0159839 -0.00765198 0)
(-0.0128928 -0.00707169 0)
(-0.0100401 -0.00633922 0)
(-0.00747988 -0.00546965 0)
(-0.00525888 -0.00448746 0)
(-0.00341391 -0.00342988 0)
(-0.00196771 -0.00235177 0)
(-0.000924835 -0.00133159 0)
(-0.000279956 -0.000480091 0)
(-2.81787e-05 3.54312e-05 0)
(-6.11409e-05 0.000188442 0)
(-0.000465661 0.00117263 0)
(-0.00140627 0.00249683 0)
(-0.00283704 0.00397566 0)
(-0.00473361 0.00548256 0)
(-0.0070743 0.00692656 0)
(-0.00982233 0.00824391 0)
(-0.0129293 0.00939195 0)
(-0.016339 0.0103437 0)
(-0.0199899 0.0110837 0)
(-0.023817 0.0116051 0)
(-0.0277537 0.0119074 0)
(-0.0317336 0.0119948 0)
(-0.0356915 0.0118751 0)
(-0.0395648 0.0115586 0)
(-0.0432936 0.0110575 0)
(-0.0468222 0.0103855 0)
(-0.0500987 0.00955752 0)
(-0.0530763 0.00858906 0)
(-0.0557129 0.00749646 0)
(-0.0579717 0.00629663 0)
(-0.0598214 0.00500695 0)
(-0.0612362 0.00364531 0)
(-0.0621961 0.00223006 0)
(-0.0626873 0.000780022 0)
(-0.0627017 -0.000685518 0)
(-0.0622379 -0.00214684 0)
(-0.0613004 -0.00358383 0)
(-0.0599004 -0.00497605 0)
(-0.0580557 -0.00630281 0)
(-0.0557903 -0.00754339 0)
(-0.053135 -0.00867712 0)
(-0.0501269 -0.00968373 0)
(-0.0468092 -0.0105435 0)
(-0.0432312 -0.0112379 0)
(-0.0394474 -0.0117495 0)
(-0.0355173 -0.012063 0)
(-0.0315048 -0.0121652 0)
(-0.0274767 -0.0120463 0)
(-0.0235021 -0.0117002 0)
(-0.019651 -0.0111252 0)
(-0.0159923 -0.0103261 0)
(-0.0125924 -0.00931456 0)
(-0.00951284 -0.0081119 0)
(-0.00680789 -0.0067513 0)
(-0.00452237 -0.00528149 0)
(-0.00268776 -0.0037716 0)
(-0.00131892 -0.00231658 0)
(-0.000430438 -0.00104464 0)
(-5.4589e-05 -0.000139212 0)
(-8.64995e-05 0.00045972 0)
(-0.000615516 0.00197802 0)
(-0.0018046 0.00382878 0)
(-0.00356863 0.00581915 0)
(-0.00586042 0.0078116 0)
(-0.00864533 0.00970372 0)
(-0.0118757 0.0114214 0)
(-0.0154939 0.0129136 0)
(-0.0194356 0.0141469 0)
(-0.0236318 0.0151015 0)
(-0.0280106 0.0157682 0)
(-0.0324986 0.016146 0)
(-0.0370228 0.0162396 0)
(-0.0415118 0.0160589 0)
(-0.0458966 0.0156168 0)
(-0.0501116 0.0149293 0)
(-0.0540953 0.0140143 0)
(-0.057791 0.0128912 0)
(-0.061147 0.0115807 0)
(-0.064117 0.0101045 0)
(-0.0666604 0.00848502 0)
(-0.0687426 0.00674561 0)
(-0.0703354 0.00491014 0)
(-0.0714167 0.00300316 0)
(-0.0719711 0.00104985 0)
(-0.0719899 -0.000923995 0)
(-0.0714712 -0.00289201 0)
(-0.0704202 -0.00482733 0)
(-0.0688491 -0.00670268 0)
(-0.0667772 -0.00849051 0)
(-0.0642311 -0.0101632 0)
(-0.0612446 -0.0116934 0)
(-0.0578582 -0.0130541 0)
(-0.0541196 -0.0142193 0)
(-0.0500826 -0.0151644 0)
(-0.0458074 -0.0158666 0)
(-0.0413592 -0.0163058 0)
(-0.036808 -0.016465 0)
(-0.0322275 -0.0163315 0)
(-0.0276936 -0.0158975 0)
(-0.0232833 -0.0151617 0)
(-0.0190731 -0.0141302 0)
(-0.0151367 -0.0128186 0)
(-0.0115434 -0.0112541 0)
(-0.008356 -0.00947806 0)
(-0.00562856 -0.00754967 0)
(-0.00340311 -0.0055503 0)
(-0.0017068 -0.00358817 0)
(-0.000575664 -0.00180417 0)
(-7.89821e-05 -0.000390795 0)
(-0.000109769 0.000806188 0)
(-0.000757919 0.00297844 0)
(-0.00218937 0.00544973 0)
(-0.00428175 0.00802471 0)
(-0.00696495 0.0105591 0)
(-0.0101903 0.0129424 0)
(-0.0138982 0.0150927 0)
(-0.0180204 0.0169521 0)
(-0.0224839 0.018482 0)
(-0.027212 0.019659 0)
(-0.0321256 0.0204722 0)
(-0.0371449 0.02092 0)
(-0.0421907 0.0210084 0)
(-0.0471858 0.0207492 0)
(-0.0520559 0.0201587 0)
(-0.0567302 0.0192566 0)
(-0.0611425 0.0180653 0)
(-0.0652318 0.0166095 0)
(-0.0689423 0.0149152 0)
(-0.0722241 0.01301 0)
(-0.0750337 0.0109225 0)
(-0.0773337 0.00868216 0)
(-0.0790937 0.00631953 0)
(-0.0802898 0.00386587 0)
(-0.0809054 0.00135329 0)
(-0.0809311 -0.00118537 0)
(-0.0803646 -0.00371654 0)
(-0.0792114 -0.00620602 0)
(-0.0774845 -0.00861913 0)
(-0.0752045 -0.0109209 0)
(-0.0723998 -0.0130762 0)
(-0.0691065 -0.0150502 0)
(-0.0653682 -0.016809 0)
(-0.0612359 -0.0183194 0)
(-0.0567676 -0.0195505 0)
(-0.0520278 -0.0204734 0)
(-0.0470869 -0.0210628 0)
(-0.0420206 -0.0212974 0)
(-0.0369082 -0.0211612 0)
(-0.0318323 -0.0206448 0)
(-0.0268767 -0.0197462 0)
(-0.0221249 -0.0184731 0)
(-0.0176586 -0.0168445 0)
(-0.0135553 -0.0148928 0)
(-0.00988715 -0.0126666 0)
(-0.00671866 -0.0102342 0)
(-0.00410374 -0.00768697 0)
(-0.00208297 -0.00514364 0)
(-0.000714028 -0.00275403 0)
(-0.000101348 -0.000715232 0)
(-0.000131251 0.00122351 0)
(-0.00089308 0.00416683 0)
(-0.00255943 0.0073528 0)
(-0.00497317 0.0105865 0)
(-0.00804188 0.0137199 0)
(-0.0117024 0.0166375 0)
(-0.0158823 0.0192517 0)
(-0.0205023 0.0214997 0)
(-0.0254799 0.0233388 0)
(-0.0307299 0.0247435 0)
(-0.0361662 0.0257015 0)
(-0.0417023 0.0262115 0)
(-0.0472533 0.026281 0)
(-0.0527365 0.0259244 0)
(-0.0580726 0.0251615 0)
(-0.0631863 0.0240163 0)
(-0.0680075 0.0225162 0)
(-0.0724712 0.0206912 0)
(-0.0765184 0.0185733 0)
(-0.0800962 0.0161961 0)
(-0.0831585 0.0135948 0)
(-0.0856657 0.0108058 0)
(-0.0875853 0.00786639 0)
(-0.0888923 0.00481505 0)
(-0.0895688 0.00169122 0)
(-0.0896045 -0.00146476 0)
(-0.0889971 -0.00461165 0)
(-0.0877519 -0.00770749 0)
(-0.0858824 -0.0107097 0)
(-0.0834101 -0.0135753 0)
(-0.0803649 -0.0162614 0)
(-0.0767845 -0.0187252 0)
(-0.072715 -0.020925 0)
(-0.0682101 -0.0228202 0)
(-0.0633312 -0.0243728 0)
(-0.0581468 -0.0255476 0)
(-0.0527316 -0.0263134 0)
(-0.0471663 -0.0266442 0)
(-0.0415359 -0.0265202 0)
(-0.035929 -0.0259296 0)
(-0.0304362 -0.0248695 0)
(-0.0251486 -0.0233487 0)
(-0.0201558 -0.0213884 0)
(-0.0155445 -0.0190257 0)
(-0.0113969 -0.0163153 0)
(-0.00778895 -0.0133328 0)
(-0.00478738 -0.0101782 0)
(-0.00244675 -0.00697786 0)
(-0.000845879 -0.0038882 0)
(-0.000122003 -0.00110849 0)
(-0.000151322 0.00170791 0)
(-0.00102201 0.00553619 0)
(-0.00291602 0.0095304 0)
(-0.00564382 0.0134975 0)
(-0.00909161 0.0172881 0)
(-0.0131817 0.0207835 0)
(-0.0178284 0.0238928 0)
(-0.0229408 0.0265498 0)
(-0.0284261 0.0287098 0)
(-0.0341908 0.0303456 0)
(-0.0401408 0.0314449 0)
(-0.0461834 0.0320074 0)
(-0.0522276 0.0320429 0)
(-0.0581857 0.0315687 0)
(-0.0639736 0.0306088 0)
(-0.0695122 0.0291918 0)
(-0.0747276 0.0273505 0)
(-0.0795515 0.0251206 0)
(-0.0839222 0.0225405 0)
(-0.0877844 0.0196503 0)
(-0.0910895 0.0164921 0)
(-0.0937964 0.0131092 0)
(-0.095871 0.00954632 0)
(-0.0972869 0.00584943 0)
(-0.0980251 0.00206558 0)
(-0.0980749 -0.00175702 0)
(-0.0974332 -0.00556917 0)
(-0.0961053 -0.00932076 0)
(-0.094105 -0.0129609 0)
(-0.0914543 -0.0164385 0)
(-0.0881838 -0.0197019 0)
(-0.0843327 -0.0227003 0)
(-0.0799487 -0.0253836 0)
(-0.0750879 -0.0277034 0)
(-0.0698145 -0.0296141 0)
(-0.0642001 -0.0310733 0)
(-0.0583237 -0.0320436 0)
(-0.0522705 -0.0324935 0)
(-0.0461308 -0.0323989 0)
(-0.0399994 -0.0317448 0)
(-0.0339738 -0.0305269 0)
(-0.0281525 -0.0287539 0)
(-0.0226342 -0.0264487 0)
(-0.0175151 -0.0236518 0)
(-0.0128882 -0.0204228 0)
(-0.00884192 -0.0168434 0)
(-0.00545629 -0.01302 0)
(-0.00280006 -0.00908549 0)
(-0.00097247 -0.005201 0)
(-0.00014136 -0.00156719 0)
(-0.000170344 0.00225633 0)
(-0.00114601 0.00708044 0)
(-0.00326151 0.0119756 0)
(-0.00629686 0.0167511 0)
(-0.0101178 0.0212576 0)
(-0.0146322 0.025375 0)
(-0.0197411 0.0290109 0)
(-0.0253412 0.0320974 0)
(-0.0313295 0.034589 0)
(-0.0376032 0.0364584 0)
(-0.0440606 0.0376944 0)
(-0.0506019 0.0382985 0)
(-0.0571306 0.0382835 0)
(-0.0635536 0.0376706 0)
(-0.0697828 0.0364883 0)
(-0.0757352 0.0347705 0)
(-0.0813335 0.0325557 0)
(-0.086507 0.0298861 0)
(-0.0911914 0.0268063 0)
(-0.0953292 0.0233636 0)
(-0.0988703 0.0196071 0)
(-0.101772 0.0155875 0)
(-0.103998 0.011357 0)
(-0.105523 0.00696924 0)
(-0.106325 0.00247929 0)
(-0.106393 -0.00205666 0)
(-0.105724 -0.00658113 0)
(-0.104323 -0.0110356 0)
(-0.102203 -0.0153608 0)
(-0.0993858 -0.0194967 0)
(-0.0959036 -0.0233831 0)
(-0.0917959 -0.0269604 0)
(-0.0871117 -0.0301699 0)
(-0.0819087 -0.0329547 0)
(-0.0762535 -0.0352609 0)
(-0.0702206 -0.0370386 0)
(-0.0638926 -0.0382434 0)
(-0.0573589 -0.0388374 0)
(-0.0507153 -0.0387916 0)
(-0.0440626 -0.0380869 0)
(-0.0375052 -0.0367167 0)
(-0.0311501 -0.0346885 0)
(-0.0251048 -0.032026 0)
(-0.0194762 -0.0287718 0)
(-0.0143687 -0.0249892 0)
(-0.00988379 -0.0207645 0)
(-0.00611525 -0.0162096 0)
(-0.00314616 -0.0114624 0)
(-0.00109544 -0.00668806 0)
(-0.000159836 -0.00208882 0)
(-0.000188646 0.00286651 0)
(-0.00126646 0.00879479 0)
(-0.00359872 0.0146826 0)
(-0.00693652 0.0203416 0)
(-0.0111258 0.0256233 0)
(-0.0160604 0.0304076 0)
(-0.0216276 0.0346018 0)
(-0.027712 0.0381383 0)
(-0.0341995 0.0409719 0)
(-0.0409779 0.0430768 0)
(-0.0479376 0.0444438 0)
(-0.0549717 0.0450776 0)
(-0.0619779 0.0449948 0)
(-0.0688581 0.0442212 0)
(-0.0755202 0.0427906 0)
(-0.0818775 0.0407428 0)
(-0.08785 0.0381225 0)
(-0.0933645 0.0349786 0)
(-0.0983546 0.0313628 0)
(-0.102761 0.0273294 0)
(-0.106533 0.0229349 0)
(-0.109626 0.0182376 0)
(-0.112003 0.0132974 0)
(-0.113636 0.00817587 0)
(-0.114505 0.00293602 0)
(-0.114597 -0.00235772 0)
(-0.113908 -0.00763951 0)
(-0.112442 -0.0128423 0)
(-0.110213 -0.0178979 0)
(-0.107242 -0.0227375 0)
(-0.103561 -0.0272919 0)
(-0.0992099 -0.0314923 0)
(-0.0942383 -0.0352709 0)
(-0.0887054 -0.0385618 0)
(-0.0826793 -0.0413025 0)
(-0.0762373 -0.0434345 0)
(-0.0694652 -0.0449056 0)
(-0.0624565 -0.045671 0)
(-0.0553121 -0.0456955 0)
(-0.048139 -0.0449552 0)
(-0.041049 -0.0434397 0)
(-0.0341576 -0.0411545 0)
(-0.027582 -0.0381228 0)
(-0.0214401 -0.0343881 0)
(-0.0158487 -0.0300161 0)
(-0.0109228 -0.0250967 0)
(-0.00677038 -0.019746 0)
(-0.00348889 -0.0141064 0)
(-0.00121653 -0.0083468 0)
(-0.000177825 -0.00267186 0)
(-0.000206513 0.00353693 0)
(-0.00138466 0.0106759 0)
(-0.00393057 0.0176472 0)
(-0.00756738 0.0242648 0)
(-0.0121219 0.0303813 0)
(-0.0174736 0.0358778 0)
(-0.0234965 0.0406625 0)
(-0.0300624 0.0446693 0)
(-0.0370463 0.0478551 0)
(-0.0443261 0.0501967 0)
(-0.0517838 0.0516883 0)
(-0.0593057 0.052339 0)
(-0.0667834 0.0521701 0)
(-0.0741142 0.0512131 0)
(-0.0812016 0.0495078 0)
(-0.0879561 0.0471005 0)
(-0.094295 0.0440429 0)
(-0.100143 0.0403908 0)
(-0.105432 0.0362033 0)
(-0.110102 0.0315423 0)
(-0.1141 0.0264717 0)
(-0.117381 0.0210576 0)
(-0.119908 0.0153677 0)
(-0.121652 0.00947153 0)
(-0.122591 0.00344013 0)
(-0.122712 -0.00265378 0)
(-0.122011 -0.00873595 0)
(-0.12049 -0.0147306 0)
(-0.118163 -0.0205609 0)
(-0.11505 -0.0261486 0)
(-0.111183 -0.0314156 0)
(-0.106601 -0.0362833 0)
(-0.101355 -0.0406745 0)
(-0.095504 -0.0445138 0)
(-0.0891177 -0.0477291 0)
(-0.0822754 -0.050253 0)
(-0.0750657 -0.0520245 0)
(-0.0675864 -0.0529908 0)
(-0.0599432 -0.0531094 0)
(-0.0522494 -0.0523503 0)
(-0.0446245 -0.0506984 0)
(-0.0371926 -0.0481557 0)
(-0.0300816 -0.0447436 0)
(-0.0234207 -0.0405052 0)
(-0.0173399 -0.0355075 0)
(-0.0119682 -0.0298428 0)
(-0.00742834 -0.0236307 0)
(-0.00383233 -0.0170176 0)
(-0.0013375 -0.0101766 0)
(-0.000195687 -0.00331573 0)
(-0.000224191 0.00426674 0)
(-0.00150183 0.0127218 0)
(-0.00425989 0.0208672 0)
(-0.00819403 0.0285183 0)
(-0.013112 0.0355294 0)
(-0.0188795 0.0417834 0)
(-0.0253566 0.0471907 0)
(-0.0324023 0.0516881 0)
(-0.0398801 0.0552357 0)
(-0.0476584 0.0578145 0)
(-0.0556103 0.0594236 0)
(-0.0636151 0.0600774 0)
(-0.0715585 0.0598034 0)
(-0.079333 0.0586395 0)
(-0.0868384 0.0566326 0)
(-0.0939822 0.0538362 0)
(-0.10068 0.0503095 0)
(-0.106853 0.0461158 0)
(-0.112434 0.0413219 0)
(-0.117362 0.0359975 0)
(-0.121582 0.0302142 0)
(-0.125049 0.024046 0)
(-0.127725 0.0175685 0)
(-0.129581 0.0108589 0)
(-0.130595 0.0039965 0)
(-0.130752 -0.00293789 0)
(-0.130046 -0.00986159 0)
(-0.128481 -0.0166902 0)
(-0.126067 -0.0233379 0)
(-0.122825 -0.0297174 0)
(-0.118786 -0.0357409 0)
(-0.113987 -0.0413203 0)
(-0.10848 -0.0463683 0)
(-0.102323 -0.0507993 0)
(-0.095588 -0.0545312 0)
(-0.0883547 -0.0574866 0)
(-0.0807146 -0.0595948 0)
(-0.0727691 -0.0607938 0)
(-0.064629 -0.0610327 0)
(-0.0564137 -0.0602742 0)
(-0.0482506 -0.0584968 0)
(-0.0402731 -0.0556977 0)
(-0.0326198 -0.0518949 0)
(-0.0254325 -0.0471299 0)
(-0.0188544 -0.0414697 0)
(-0.0130296 -0.0350083 0)
(-0.00809593 -0.0278678 0)
(-0.00418052 -0.0201989 0)
(-0.00146002 -0.0121788 0)
(-0.000213746 -0.00402077 0)
(-0.000241893 0.0050557 0)
(-0.00161905 0.0149319 0)
(-0.0045893 0.0243416 0)
(-0.00882083 0.0331013 0)
(-0.0141024 0.0410668 0)
(-0.0202855 0.0481235 0)
(-0.0272163 0.0541854 0)
(-0.0347407 0.0591929 0)
(-0.0427107 0.0631113 0)
(-0.0509844 0.0659269 0)
(-0.0594264 0.0676452 0)
(-0.0679087 0.0682873 0)
(-0.0763112 0.0678881 0)
(-0.0845218 0.0664932 0)
(-0.0924367 0.0641571 0)
(-0.0999609 0.0609417 0)
(-0.107008 0.0569142 0)
(-0.113499 0.0521459 0)
(-0.119364 0.0467119 0)
(-0.124542 0.0406897 0)
(-0.128979 0.034159 0)
(-0.132629 0.0272014 0)
(-0.135454 0.0199003 0)
(-0.137424 0.0123409 0)
(-0.138515 0.00461035 0)
(-0.138714 -0.00320255 0)
(-0.138013 -0.0110068 0)
(-0.136414 -0.0187096 0)
(-0.133927 -0.0262161 0)
(-0.130571 -0.03343 0)
(-0.126374 -0.0402537 0)
(-0.121375 -0.046589 0)
(-0.115622 -0.0523385 0)
(-0.109174 -0.0574058 0)
(-0.102103 -0.0616979 0)
(-0.0944895 -0.0651266 0)
(-0.0864275 -0.0676103 0)
(-0.0780215 -0.0690766 0)
(-0.069387 -0.069465 0)
(-0.0606499 -0.068729 0)
(-0.0519453 -0.0668394 0)
(-0.0434163 -0.0637868 0)
(-0.0352129 -0.0595845 0)
(-0.0274896 -0.0542709 0)
(-0.0204043 -0.0479117 0)
(-0.0141164 -0.0406013 0)
(-0.00877986 -0.0324645 0)
(-0.00453738 -0.0236555 0)
(-0.00158568 -0.0143568 0)
(-0.000232302 -0.00478817 0)
(-0.000259799 0.00590413 0)
(-0.00173731 0.0173069 0)
(-0.00492121 0.0280714 0)
(-0.00945183 0.0380146 0)
(-0.0150986 0.0469941 0)
(-0.0216985 0.0548986 0)
(-0.0290835 0.0616461 0)
(-0.0370862 0.0671826 0)
(-0.0455465 0.0714795 0)
(-0.0543122 0.0745302 0)
(-0.0632392 0.076348 0)
(-0.0721924 0.0769623 0)
(-0.0810458 0.0764165 0)
(-0.089683 0.0747652 0)
(-0.0979971 0.0720719 0)
(-0.105891 0.0684073 0)
(-0.113276 0.0638473 0)
(-0.120073 0.0584723 0)
(-0.126213 0.0523655 0)
(-0.131634 0.0456126 0)
(-0.136281 0.0383013 0)
(-0.140109 0.0305212 0)
(-0.143081 0.0223632 0)
(-0.145165 0.0139203 0)
(-0.146339 0.00528705 0)
(-0.146587 -0.00343976 0)
(-0.145901 -0.0121612 0)
(-0.14428 -0.0207762 0)
(-0.141734 -0.0291811 0)
(-0.13828 -0.0372706 0)
(-0.133943 -0.0449372 0)
(-0.128761 -0.0520729 0)
(-0.12278 -0.058569 0)
(-0.116059 -0.0643183 0)
(-0.108667 -0.0692161 0)
(-0.100687 -0.0731621 0)
(-0.0922146 -0.076063 0)
(-0.0833559 -0.0778345 0)
(-0.0742315 -0.0784046 0)
(-0.0649733 -0.0777163 0)
(-0.0557245 -0.0757307 0)
(-0.0466381 -0.0724303 0)
(-0.0378758 -0.0678218 0)
(-0.0296059 -0.0619388 0)
(-0.0220013 -0.0548444 0)
(-0.0152378 -0.0466328 0)
(-0.00948657 -0.0374304 0)
(-0.00490669 -0.0273953 0)
(-0.00171598 -0.0167159 0)
(-0.000251628 -0.00561993 0)
(-0.000278074 0.00681281 0)
(-0.0018575 0.0198485 0)
(-0.00525783 0.0320589 0)
(-0.0100908 0.0432606 0)
(-0.0161058 0.0533135 0)
(-0.0231249 0.0621099 0)
(-0.0309653 0.0695731 0)
(-0.0394459 0.075656 0)
(-0.0483943 0.0803374 0)
(-0.0576477 0.0836198 0)
(-0.0670533 0.0855255 0)
(-0.0764687 0.086094 0)
(-0.0857625 0.0853788 0)
(-0.0948142 0.0834445 0)
(-0.103514 0.0803649 0)
(-0.111763 0.0762205 0)
(-0.119472 0.0710969 0)
(-0.126563 0.0650834 0)
(-0.132964 0.0582723 0)
(-0.138616 0.0507575 0)
(-0.143464 0.042635 0)
(-0.147465 0.0340017 0)
(-0.15058 0.0249564 0)
(-0.152779 0.0155992 0)
(-0.154039 0.00603195 0)
(-0.154342 -0.00364108 0)
(-0.153681 -0.0133134 0)
(-0.152052 -0.0228759 0)
(-0.149464 -0.0322166 0)
(-0.14593 -0.0412211 0)
(-0.141474 -0.0497725 0)
(-0.13613 -0.0577522 0)
(-0.129943 -0.0650406 0)
(-0.122969 -0.0715187 0)
(-0.115277 -0.0770693 0)
(-0.106949 -0.0815793 0)
(-0.0980797 -0.084942 0)
(-0.0887796 -0.0870599 0)
(-0.0791724 -0.0878479 0)
(-0.0693961 -0.0872364 0)
(-0.0596017 -0.0851749 0)
(-0.0499526 -0.0816358 0)
(-0.0406225 -0.076617 0)
(-0.0317941 -0.0701459 0)
(-0.0236563 -0.0622814 0)
(-0.0164026 -0.0531162 0)
(-0.0102222 -0.0427779 0)
(-0.00529202 -0.0314286 0)
(-0.00185236 -0.0192632 0)
(-0.00027198 -0.00651882 0)
(-0.000296861 0.00778297 0)
(-0.00198043 0.0225596 0)
(-0.00560121 0.0363077 0)
(-0.0107411 0.0488432 0)
(-0.0171288 0.0600283 0)
(-0.0245705 0.0697597 0)
(-0.032868 0.0779672 0)
(-0.041826 0.0846116 0)
(-0.0512594 0.0896814 0)
(-0.0609948 0.0931894 0)
(-0.0708703 0.0951691 0)
(-0.0807366 0.0956716 0)
(-0.090457 0.0947621 0)
(-0.0999073 0.0925168 0)
(-0.108976 0.0890208 0)
(-0.117562 0.0843655 0)
(-0.125577 0.0786469 0)
(-0.132942 0.0719642 0)
(-0.139588 0.0644187 0)
(-0.145457 0.056113 0)
(-0.150495 0.047151 0)
(-0.154659 0.0376372 0)
(-0.157912 0.0276774 0)
(-0.160224 0.0173788 0)
(-0.161571 0.00685006 0)
(-0.161938 -0.0037977 0)
(-0.161312 -0.0144509 0)
(-0.159691 -0.0249929 0)
(-0.157078 -0.0353039 0)
(-0.153485 -0.0452607 0)
(-0.148934 -0.0547369 0)
(-0.143454 -0.0636035 0)
(-0.137088 -0.0717298 0)
(-0.129887 -0.0789843 0)
(-0.12192 -0.0852366 0)
(-0.113265 -0.0903598 0)
(-0.104019 -0.0942323 0)
(-0.0942934 -0.0967419 0)
(-0.0842146 -0.0977883 0)
(-0.0739263 -0.0972873 0)
(-0.0635875 -0.0951746 0)
(-0.0533715 -0.0914099 0)
(-0.0434652 -0.0859806 0)
(-0.0340658 -0.0789055 0)
(-0.0253797 -0.0702377 0)
(-0.0176191 -0.0600671 0)
(-0.0109928 -0.0485219 0)
(-0.00569682 -0.0357679 0)
(-0.00199617 -0.0220074 0)
(-0.000293601 -0.0074883 0)
(-0.000316299 0.00881625 0)
(-0.00210689 0.025444 0)
(-0.00595328 0.0408228 0)
(-0.0114061 0.0547676 0)
(-0.0181719 0.0671429 0)
(-0.0260404 0.0778508 0)
(-0.034797 0.0868289 0)
(-0.0442315 0.0940474 0)
(-0.0541457 0.0995063 0)
(-0.0643551 0.103231 0)
(-0.074689 0.105267 0)
(-0.0849912 0.105681 0)
(-0.0951201 0.104549 0)
(-0.104948 0.101963 0)
(-0.114363 0.0980193 0)
(-0.123263 0.0928216 0)
(-0.13156 0.086477 0)
(-0.139177 0.0790953 0)
(-0.146047 0.0707871 0)
(-0.152112 0.0616638 0)
(-0.157323 0.051837 0)
(-0.161638 0.0414188 0)
(-0.165021 0.0305216 0)
(-0.167442 0.019259 0)
(-0.168879 0.0077458 0)
(-0.169315 -0.00390062 0)
(-0.168736 -0.0155603 0)
(-0.167138 -0.0271097 0)
(-0.164522 -0.0384217 0)
(-0.160897 -0.0493648 0)
(-0.156278 -0.0598035 0)
(-0.150692 -0.0695986 0)
(-0.144178 -0.0786077 0)
(-0.136783 -0.0866868 0)
(-0.12857 -0.0936915 0)
(-0.119619 -0.0994797 0)
(-0.110022 -0.103914 0)
(-0.0998914 -0.106865 0)
(-0.0893572 -0.108215 0)
(-0.0785674 -0.107864 0)
(-0.0676885 -0.10573 0)
(-0.0569041 -0.101759 0)
(-0.0464141 -0.0959231 0)
(-0.0364316 -0.0882318 0)
(-0.0271811 -0.0787301 0)
(-0.0188951 -0.0675034 0)
(-0.0118038 -0.0546797 0)
(-0.00612439 -0.0404282 0)
(-0.00214873 -0.024959 0)
(-0.00031673 -0.00853255 0)
(-0.000336524 0.00991466 0)
(-0.00223763 0.0285065 0)
(-0.00631598 0.0456105 0)
(-0.012089 0.06104 0)
(-0.0192396 0.0746627 0)
(-0.0275396 0.0863866 0)
(-0.0367572 0.0961585 0)
(-0.0466662 0.10396 0)
(-0.057055 0.109805 0)
(-0.0677276 0.113733 0)
(-0.0785046 0.115805 0)
(-0.0892231 0.116103 0)
(-0.0997373 0.114719 0)
(-0.109917 0.111759 0)
(-0.119649 0.107335 0)
(-0.128833 0.101562 0)
(-0.137381 0.094561 0)
(-0.145221 0.0864514 0)
(-0.152287 0.0773543 0)
(-0.158525 0.0673895 0)
(-0.163888 0.0566767 0)
(-0.168336 0.0453345 0)
(-0.171836 0.0334818 0)
(-0.174361 0.0212377 0)
(-0.175888 0.0087226 0)
(-0.176398 -0.00394084 0)
(-0.175879 -0.016627 0)
(-0.174322 -0.0292066 0)
(-0.171726 -0.0415456 0)
(-0.168096 -0.0535051 0)
(-0.163442 -0.0649409 0)
(-0.157787 -0.0757036 0)
(-0.151162 -0.0856396 0)
(-0.143611 -0.0945916 0)
(-0.135193 -0.102401 0)
(-0.12598 -0.108908 0)
(-0.116066 -0.11396 0)
(-0.105559 -0.117407 0)
(-0.0945926 -0.119113 0)
(-0.0833176 -0.118956 0)
(-0.0719076 -0.116838 0)
(-0.0605566 -0.112685 0)
(-0.0494776 -0.106454 0)
(-0.0389004 -0.0981391 0)
(-0.0290691 -0.0877763 0)
(-0.020238 -0.0754448 0)
(-0.0126607 -0.0612706 0)
(-0.00657798 -0.0454264 0)
(-0.00231136 -0.0281302 0)
(-0.000341605 -0.00965642 0)
(-0.000357679 0.0110807 0)
(-0.00237347 0.0317528 0)
(-0.00669131 0.050678 0)
(-0.012793 0.0676681 0)
(-0.0203361 0.0825937 0)
(-0.0290728 0.0953704 0)
(-0.0387528 0.105956 0)
(-0.0491331 0.114345 0)
(-0.0599878 0.120568 0)
(-0.0711093 0.12468 0)
(-0.0823094 0.126763 0)
(-0.093419 0.126913 0)
(-0.104289 0.125244 0)
(-0.114787 0.121875 0)
(-0.1248 0.116935 0)
(-0.134229 0.110554 0)
(-0.142992 0.102865 0)
(-0.151017 0.0940007 0)
(-0.158244 0.0840908 0)
(-0.164623 0.0732643 0)
(-0.17011 0.0616483 0)
(-0.17467 0.0493678 0)
(-0.178272 0.0365471 0)
(-0.180891 0.0233104 0)
(-0.182504 0.00978251 0)
(-0.183094 -0.00390961 0)
(-0.182646 -0.0176359 0)
(-0.18115 -0.0312619 0)
(-0.178601 -0.0446481 0)
(-0.174997 -0.0576489 0)
(-0.170347 -0.070112 0)
(-0.164664 -0.0818785 0)
(-0.157975 -0.0927834 0)
(-0.150315 -0.102656 0)
(-0.141737 -0.111323 0)
(-0.132309 -0.118607 0)
(-0.122119 -0.124335 0)
(-0.111274 -0.128338 0)
(-0.0999056 -0.130457 0)
(-0.0881688 -0.130549 0)
(-0.0762429 -0.128492 0)
(-0.0643317 -0.124189 0)
(-0.0526616 -0.11758 0)
(-0.04148 -0.108641 0)
(-0.0310516 -0.0973949 0)
(-0.0216549 -0.0839123 0)
(-0.0135689 -0.068316 0)
(-0.00706086 -0.0507814 0)
(-0.00248538 -0.0315347 0)
(-0.000368472 -0.0108654 0)
(-0.000379926 0.0123171 0)
(-0.0025153 0.0351897 0)
(-0.00708147 0.0560342 0)
(-0.0135218 0.0746603 0)
(-0.021466 0.0909427 0)
(-0.0306449 0.104806 0)
(-0.0407881 0.116219 0)
(-0.0516345 0.125195 0)
(-0.0629431 0.131781 0)
(-0.0744946 0.136054 0)
(-0.0860919 0.138115 0)
(-0.0975605 0.138082 0)
(-0.108748 0.136087 0)
(-0.119522 0.13227 0)
(-0.129771 0.126777 0)
(-0.1394 0.119755 0)
(-0.14833 0.111349 0)
(-0.156494 0.101703 0)
(-0.163839 0.0909597 0)
(-0.170319 0.0792552 0)
(-0.175896 0.0667239 0)
(-0.18054 0.0534968 0)
(-0.184222 0.0397027 0)
(-0.186921 0.0254696 0)
(-0.188616 0.0109257 0)
(-0.189289 -0.00379877 0)
(-0.188924 -0.0185706 0)
(-0.18751 -0.0332518 0)
(-0.185036 -0.0476982 0)
(-0.181496 -0.0617587 0)
(-0.176892 -0.0752738 0)
(-0.171231 -0.088076 0)
(-0.16453 -0.099989 0)
(-0.156818 -0.110829 0)
(-0.148138 -0.120406 0)
(-0.13855 -0.128527 0)
(-0.128137 -0.134995 0)
(-0.117001 -0.13962 0)
(-0.105272 -0.142218 0)
(-0.0931062 -0.14262 0)
(-0.0806873 -0.140676 0)
(-0.0682284 -0.136267 0)
(-0.0559697 -0.129306 0)
(-0.0441765 -0.11975 0)
(-0.0331358 -0.107604 0)
(-0.0231524 -0.0929281 0)
(-0.0145337 -0.0758392 0)
(-0.00757631 -0.0565142 0)
(-0.00267219 -0.0351877 0)
(-0.000397593 -0.0121658 0)
(-0.000403451 0.0136272 0)
(-0.00266417 0.0388251 0)
(-0.00748899 0.0616891 0)
(-0.0142795 0.0820267 0)
(-0.0226345 0.0997171 0)
(-0.0322613 0.114695 0)
(-0.0428674 0.126946 0)
(-0.0541721 0.1365 0)
(-0.0659186 0.143428 0)
(-0.0778754 0.147829 0)
(-0.0898372 0.149829 0)
(-0.101624 0.149569 0)
(-0.113082 0.147205 0)
(-0.124081 0.142898 0)
(-0.13451 0.136812 0)
(-0.144281 0.129112 0)
(-0.15332 0.119959 0)
(-0.161568 0.10951 0)
(-0.168977 0.0979151 0)
(-0.17551 0.0853213 0)
(-0.181135 0.0718688 0)
(-0.185826 0.0576937 0)
(-0.189562 0.0429285 0)
(-0.192322 0.0277039 0)
(-0.19409 0.0121501 0)
(-0.194847 -0.00360111 0)
(-0.194578 -0.0194147 0)
(-0.193267 -0.0351505 0)
(-0.190899 -0.0506614 0)
(-0.187465 -0.0657919 0)
(-0.182957 -0.0803769 0)