/*--------------------------------*- C++ -*----------------------------------*\
| =========                 |                                                 |
| \\      /  F ield         | OpenFOAM: The Open Source CFD Toolbox           |
|  \\    /   O peration     | Version:  v2012                                 |
|   \\  /    A nd           | Website:  www.openfoam.com                      |
|    \\/     M anipulation  |                                                 |
\*---------------------------------------------------------------------------*/
FoamFile
{
    version     2.0;
    format      ascii;
    class       volScalarField;
    location    "0.25";
    object      p;
}
// * * * * * * * * * * * * * * * * * * * * * * * * * * * * * * * * * * * * * //

dimensions      [0 2 -2 0 0 0 0];


internalField   nonuniform List<scalar> 
1250
(
6.0405e-06
-0.000555717
-0.0022929
-0.00491503
-0.00800452
-0.0112317
-0.0143394
-0.0171275
-0.0194446
-0.0211799
-0.0222557
-0.0226215
-0.0222494
-0.0211308
-0.019273
-0.0166969
-0.0134355
-0.00953176
-0.00503751
-1.2342e-05
0.00547744
0.0113597
0.0175573
0.0239887
0.0305692
0.000574961
1.19269e-05
-0.00142804
-0.0035223
-0.00597648
-0.00854928
-0.0110384
-0.013277
-0.0151326
-0.0165043
-0.0173179
-0.0175232
-0.0170898
-0.0160047
-0.0142702
-0.0119011
-0.00892387
-0.0053745
-0.00129768
0.00325446
0.00822324
0.0135443
0.0191486
0.0249627
0.0309103
0.0023148
0.00145169
1.48362e-06
-0.00189039
-0.0040363
-0.00625315
-0.00837985
-0.0102797
-0.0118406
-0.0129739
-0.0136131
-0.0137113
-0.0132391
-0.0121825
-0.0105414
-0.00832718
-0.00556209
-0.00227748
0.00148715
0.00568513
0.0102636
0.0151641
0.0203237
0.0256756
0.0311497
0.00496521
0.00356003
0.0018697
-5.16328e-05
-0.00212027
-0.00419446
-0.0061446
-0.00786103
-0.00925154
-0.0102415
-0.0107738
-0.0108074
-0.0103162
-0.00928764
-0.00772102
-0.0056265
-0.00302385
5.86628e-05
0.00358514
0.00751296
0.0117936
0.0163734
0.0211942
0.0261942
0.0313084
0.00814646
0.00607034
0.00401242
0.00193445
-0.000183178
-0.00223249
-0.00411036
-0.00573194
-0.00702428
-0.00792701
-0.00839318
-0.00838895
-0.00789279
-0.00689456
-0.00539456
-0.00340262
-0.000937129
0.00197573
0.00530284
0.00900481
0.0130368
0.0173489
0.0218874
0.0265945
0.0314099
0.0115698
0.00876833
0.00626676
0.0039437
0.00168398
-0.000431031
-0.00231973
-0.00391906
-0.0051738
-0.00603719
-0.00647263
-0.00645389
-0.00596471
-0.00499835
-0.00355694
-0.00165085
0.000701964
0.00347664
0.00664202
0.0101612
0.0139922
0.0180885
0.0223996
0.0268715
0.0314474
0.0150149
0.0114755
0.00848772
0.00585871
0.00338815
0.00113755
-0.000828206
-0.0024646
-0.00373208
-0.00459642
-0.00503095
-0.00501706
-0.00454415
-0.00360938
-0.00221737
-0.000379756
0.00188526
0.00455339
0.00759471
0.0109741
0.0146519
0.0185839
0.0227224
0.0270164
0.0314121
0.0183104
0.0140419
0.0105483
0.00757515
0.00484694
0.0024109
0.000319261
-0.00139889
-0.00271757
-0.00361377
-0.00407004
-0.00407515
-0.00362417
-0.00271846
-0.00136551
0.000421264
0.00262285
0.00521494
0.00816825
0.0114489
0.0150186
0.0188354
0.0228534
0.0270239
0.0312954
0.0213223
0.0163429
0.0123374
0.00899757
0.00598122
0.0033255
0.00107337
-0.000758806
-0.00215663
-0.00310698
-0.00360077
-0.00363372
-0.00320645
-0.00232456
-0.00099867
0.000755697
0.0029183
0.00546434
0.00836469
0.0115861
0.0150914
0.0188398
0.0227871
0.0268862
0.0310872
0.023944
0.0182737
0.0137573
0.0100385
0.00671496
0.00381693
0.00138075
-0.000587628
-0.00208367
-0.00310286
-0.00364368
-0.00370827
-0.00330251
-0.00243626
-0.00112335
0.00061837
0.00276713
0.00529727
0.00817939
0.0113804
0.0148639
0.0185896
0.0225147
0.0265929
0.0307756
0.0260871
0.0197441
0.0147211
0.0106176
0.00697563
0.00382127
0.00118616
-0.000932365
-0.00253815
-0.00363423
-0.00422584
-0.00432103
-0.00393072
-0.00306884
-0.00175249
-1.98692e-06
0.00215914
0.0047041
0.00760288
0.0108223
0.0143258
0.0180741
0.0220244
0.0261313
0.0303468
0.0276757
0.0206744
0.0151497
0.0106594
0.00669346
0.00327511
0.000432927
-0.00184297
-0.00356365
-0.00473879
-0.00537975
-0.00550001
-0.00511522
-0.00424331
-0.00290462
-0.00112201
0.00107908
0.00367049
0.00662133
0.00989791
0.0134636
0.017279
0.0213017
0.0254866
0.0297856
0.0286416
0.0209916
0.0149694
0.0100924
0.00580035
0.00211502
-0.000937112
-0.00337212
-0.00520744
-0.0064587
-0.00714281
-0.00727837
-0.00688551
-0.00598602
-0.00460347
-0.00276331
-0.000493042
0.00217766
0.0052168
0.00858995
0.0122601
0.0161875
0.0203297
0.0246415
0.0290748
0.0289201
0.0206266
0.0141094
0.00884662
0.00422882
0.000276939
-0.00298388
-0.00557521
-0.00752027
-0.00884012
-0.00955689
-0.00969398
-0.00927584
-0.00832806
-0.00687741
-0.00495201
-0.00258151
0.000202759
0.00336755
0.00687749
0.0106949
0.0147796
0.0190888
0.0235768
0.0281953
0.0284481
0.0195114
0.0125001
0.00685255
0.00191086
-0.00230455
-0.00576944
-0.00851047
-0.0105563
-0.011933
-0.0126679
-0.0127889
-0.0123248
-0.0113048
-0.00975904
-0.0077183
-0.00521447
-0.00228067
0.00104845
0.00473646
0.00874485
0.0130328
0.0175569
0.0222711
0.0271263
0.0271616
0.0175778
0.0100709
0.00403954
-0.00122314
-0.005697
-0.00935851
-0.0122392
-0.014373
-0.0157912
-0.0165257
-0.0166092
-0.0160748
-0.0149555
-0.0132847
-0.0110959
-0.00842344
-0.00530229
-0.00176859
0.00214004
0.00638415
0.0109222
0.01571
0.020701
0.0258453
0.0249943
0.0147552
0.00674915
0.000334576
-0.00524542
-0.00997092
-0.013819
-0.0168262
-0.0190317
-0.0204718
-0.0211836
-0.0212046
-0.020572
-0.0193228
-0.0174938
-0.0151216
-0.0122428
-0.00889441
-0.00511414
-0.000940872
0.00358495
0.00842094
0.0135223
0.0188417
0.0243284
0.0218757
0.0109693
0.0024588
-0.00433894
-0.0102319
-0.0152006
-0.0192227
-0.02234
-0.0245973
-0.0260361
-0.0266989
-0.0266281
-0.0258655
-0.0244523
-0.0224288
-0.0198347
-0.0167092
-0.0130914
-0.00902064
-0.00453709
0.000317813
0.00550087
0.0109666
0.0166669
0.0225506
0.0177307
0.00614141
-0.00288107
-0.0100623
-0.0162632
-0.0214648
-0.0256458
-0.0288536
-0.0311388
-0.032549
-0.0331321
-0.0329359
-0.0320074
-0.030392
-0.028134
-0.0252763
-0.0218609
-0.017929
-0.0135217
-0.0086804
-0.00344757
0.0021329
0.00801496
0.0141499
0.0204859
0.012478
0.000186428
-0.00935735
-0.0169228
-0.0234257
-0.028848
-0.0331698
-0.0364447
-0.0387297
-0.0400791
-0.040547
-0.0401871
-0.0390519
-0.0371918
-0.0346551
-0.0314885
-0.0277367
-0.0234432
-0.018651
-0.0134027
-0.0077415
-0.00171198
0.00463944
0.0112637
0.0181085
0.00602936
-0.00698777
-0.0170642
-0.0250147
-0.0318126
-0.037441
-0.041882
-0.0451961
-0.047448
-0.0486991
-0.0490106
-0.0484431
-0.0470551
-0.0449026
-0.0420385
-0.0385134
-0.0343751
-0.0296696
-0.0244415
-0.0187347
-0.0125932
-0.00606168
0.000813178
0.0079823
0.0153933
-0.00171171
-0.0154819
-0.0261042
-0.0344409
-0.0415252
-0.0473421
-0.0518765
-0.0551968
-0.0573765
-0.0584852
-0.0585927
-0.0577671
-0.0560739
-0.0535754
-0.0503298
-0.0463919
-0.041813
-0.0366416
-0.0309239
-0.0247051
-0.0180294
-0.0109418
-0.00348849
0.00428173
0.0123169
-0.010851
-0.0254067
-0.0365906
-0.0453142
-0.0526742
-0.0586583
-0.063255
-0.0665421
-0.0686031
-0.0695178
-0.0693655
-0.0682234
-0.0661653
-0.0632603
-0.0595729
-0.0551624
-0.0500841
-0.0443889
-0.038125
-0.0313381
-0.0240729
-0.0163739
-0.00828652
0.000141448
0.00885905
-0.0215054
-0.0368848
-0.0486486
-0.0577595
-0.0653819
-0.071507
-0.0761281
-0.0793342
-0.0812211
-0.0818805
-0.081403
-0.0798767
-0.0773849
-0.0740048
-0.0698078
-0.0648588
-0.0592168
-0.0529359
-0.0460655
-0.0386523
-0.0307405
-0.0223739
-0.0135963
-0.004454
0.00500401
-0.0338045
-0.0500531
-0.0624182
-0.0719161
-0.0797838
-0.0860172
-0.0906162
-0.0936835
-0.0953295
-0.0956604
-0.0947805
-0.0927908
-0.0897856
-0.0858522
-0.0810694
-0.0755083
-0.0692326
-0.0622989
-0.0547584
-0.0466579
-0.038041
-0.0289496
-0.0194259
-0.00951303
0.000742532
-0.047893
-0.0650657
-0.078057
-0.0879404
-0.0960314
-0.102332
-0.106851
-0.109709
-0.111033
-0.110947
-0.109573
-0.107027
-0.103416
-0.0988391
-0.0933842
-0.0871293
-0.0801426
-0.0724839
-0.0642056
-0.0553543
-0.0459721
-0.0360988
-0.0257731
-0.0150348
-0.00392623
-0.0639347
-0.0820975
-0.0957447
-0.10601
-0.114295
-0.120611
-0.124979
-0.127539
-0.128441
-0.127833
-0.125855
-0.122642
-0.118317
-0.112993
-0.106768
-0.0997276
-0.0919451
-0.0834832
-0.0743953
-0.064727
-0.0545185
-0.0438059
-0.0326238
-0.0210069
-0.00899242
-0.0821158
-0.10135
-0.115688
-0.126329
-0.13477
-0.141034
-0.145159
-0.147311
-0.147671
-0.14641
-0.143696
-0.139685
-0.134521
-0.12833
-0.121223
-0.113294
-0.104622
-0.095272
-0.0852983
-0.0747447
-0.0636478
-0.0520393
-0.0399482
-0.0274027
-0.0144331
-0.102652
-0.123057
-0.138127
-0.149132
-0.157678
-0.163803
-0.167569
-0.169177
-0.168842
-0.166771
-0.163161
-0.158197
-0.152044
-0.144847
-0.136731
-0.127798
-0.118134
-0.107805
-0.0968649
-0.0853553
-0.0733081
-0.0607488
-0.0476989
-0.0341788
-0.0202099
-0.125794
-0.147494
-0.163346
-0.174697
-0.183276
-0.189149
-0.192408
-0.193298
-0.19208
-0.189004
-0.184305
-0.178202
-0.170886
-0.162523
-0.153252
-0.143187
-0.132417
-0.12101
-0.10902
-0.096483
-0.0834243
-0.0698618
-0.0558079
-0.0412726
-0.0262667
-0.151841
-0.174992
-0.191683
-0.203349
-0.211867
-0.217338
-0.219896
-0.219848
-0.217512
-0.213191
-0.20717
-0.199706
-0.191022
-0.181307
-0.170718
-0.159376
-0.147377
-0.134789
-0.121661
-0.108024
-0.093895
-0.0792813
-0.0641838
-0.0486002
-0.0325279
-0.181155
-0.205953
-0.223548
-0.235481
-0.243806
-0.248673
-0.25028
-0.249012
-0.245262
-0.239402
-0.231776
-0.222686
-0.212395
-0.201116
-0.189022
-0.176246
-0.162884
-0.149006
-0.134652
-0.119844
-0.10459
-0.088883
-0.0727104
-0.0560546
-0.0388973
-0.214179
-0.24087
-0.259446
-0.271568
-0.279514
-0.283507
-0.283835
-0.280985
-0.27545
-0.267688
-0.258113
-0.247087
-0.234909
-0.221823
-0.208018
-0.193635
-0.17877
-0.163488
-0.147819
-0.131775
-0.115348
-0.0985145
-0.0812457
-0.0635056
-0.0452573
-0.251468
-0.280366
-0.300003
-0.312193
-0.319497
-0.322251
-0.320865
-0.315968
-0.30818
-0.298069
-0.286134
-0.272801
-0.258416
-0.24325
-0.227507
-0.211332
-0.194819
-0.178019
-0.160953
-0.143614
-0.125975
-0.107994
-0.0896216
-0.0707999
-0.0514705
-0.293728
-0.325232
-0.34601
-0.358076
-0.364363
-0.365376
-0.361703
-0.354158
-0.343531
-0.330522
-0.315733
-0.299663
-0.282705
-0.265157
-0.247232
-0.229073
-0.210764
-0.19234
-0.173803
-0.155121
-0.136247
-0.117114
-0.0976464
-0.0777638
-0.0573821
-0.341877
-0.376496
-0.398482
-0.410117
-0.414848
-0.413429
-0.406702
-0.395735
-0.381532
-0.364956
-0.346729
-0.327426
-0.307487
-0.287228
-0.266865
-0.24653
-0.226285
-0.206143
-0.186075
-0.166024
-0.14591
-0.12564
-0.105109
-0.0842077
-0.0628245
-0.39713
-0.435517
-0.458734
-0.469451
-0.471837
-0.467028
-0.456225
-0.440837
-0.422138
-0.401187
-0.378837
-0.355741
-0.332374
-0.309061
-0.286004
-0.263308
-0.241006
-0.219072
-0.19744
-0.176017
-0.154687
-0.133321
-0.111783
-0.0899321
-0.0676244
-0.461137
-0.504122
-0.528494
-0.537512
-0.536395
-0.526857
-0.510612
-0.489519
-0.465186
-0.438896
-0.411638
-0.384129
-0.356863
-0.33015
-0.304158
-0.278946
-0.254495
-0.230731
-0.207537
-0.184774
-0.162284
-0.139897
-0.117441
-0.0947379
-0.0716118
-0.536189
-0.584825
-0.610064
-0.61612
-0.609781
-0.593641
-0.570131
-0.541693
-0.510334
-0.477577
-0.444531
-0.411951
-0.380314
-0.34988
-0.320749
-0.292909
-0.266269
-0.240686
-0.21598
-0.191956
-0.168403
-0.145109
-0.121859
-0.0984367
-0.0746313
-0.625575
-0.681151
-0.706539
-0.707573
-0.693447
-0.668077
-0.634881
-0.597028
-0.556973
-0.516465
-0.476686
-0.438374
-0.401929
-0.367509
-0.335107
-0.304602
-0.275804
-0.24848
-0.222374
-0.197222
-0.172757
-0.148715
-0.124836
-0.100865
-0.0765554
-0.734179
-0.79816
-0.822109
-0.814736
-0.788977
-0.750705
-0.704639
-0.654808
-0.60411
-0.554448
-0.506983
-0.462331
-0.420733
-0.382173
-0.346478
-0.313376
-0.282548
-0.253649
-0.226332
-0.200254
-0.175083
-0.150503
-0.126207
-0.1019
-0.0772982
-0.86957
-0.943274
-0.962458
-0.941079
-0.897923
-0.841656
-0.778612
-0.713719
-0.650209
-0.589965
-0.533946
-0.482497
-0.435572
-0.392889
-0.354038
-0.318552
-0.285946
-0.255746
-0.227496
-0.20077
-0.175167
-0.150314
-0.12586
-0.101472
-0.0768287
-1.04407
-1.12759
-1.13522
-1.09057
-1.02144
-0.940229
-0.855056
-0.771568
-0.693004
-0.620889
-0.555695
-0.497271
-0.44512
-0.398579
-0.356927
-0.319451
-0.285473
-0.254368
-0.225567
-0.198553
-0.172859
-0.148057
-0.123752
-0.0995774
-0.0751818
-1.27894
-1.36799
-1.35029
-1.26713
-1.15945
-1.04412
-0.930692
-0.824883
-0.729259
-0.644415
-0.569907
-0.504787
-0.447913
-0.398116
-0.354292
-0.31544
-0.280668
-0.249192
-0.220328
-0.193474
-0.168097
-0.143722
-0.119919
-0.0962909
-0.0724648
-1.6129
-1.69018
-1.61932
-1.4729
-1.30891
-1.14803
-0.999751
-0.868349
-0.754484
-0.656942
-0.573792
-0.50294
-0.442394
-0.390372
-0.345334
-0.305969
-0.271168
-0.239998
-0.211666
-0.185498
-0.160908
-0.137387
-0.114477
-0.0917626
-0.0688565
-2.1167
-2.13163
-1.95349
-1.7052
-1.46123
-1.24197
-1.05308
-0.894451
-0.762881
-0.654177
-0.564264
-0.489563
-0.427077
-0.374356
-0.329415
-0.290652
-0.25677
-0.22671
-0.1996
-0.174713
-0.151432
-0.129226
-0.107628
-0.0862163
-0.0646002
-2.91883
-2.74199
-2.35914
-1.95416
-1.60135
-1.31131
-1.07886
-0.89453
-0.748476
-0.632184
-0.538842
-0.463176
-0.401152
-0.349695
-0.306448
-0.269586
-0.237682
-0.209605
-0.184443
-0.16145
-0.140004
-0.119576
-0.0997035
-0.0799741
-0.0600073
-4.30829
-3.58025
-2.81236
-2.18395
-1.69676
-1.33087
-1.05968
-0.857428
-0.704487
-0.58704
-0.495405
-0.422758
-0.364258
-0.316418
-0.27668
-0.243136
-0.214329
-0.189131
-0.166646
-0.146152
-0.127053
-0.108843
-0.0910877
-0.0733981
-0.055418
-7.0462
-4.67305
-3.13913
-2.23595
-1.63553
-1.22712
-0.948425
-0.752895
-0.611075
-0.505276
-0.424425
-0.3613
-0.311055
-0.270342
-0.236775
-0.208607
-0.184525
-0.163518
-0.144791
-0.127705
-0.111733
-0.0964295
-0.0814107
-0.0663345
-0.0508866
-11.6814
-5.75834
-2.98805
-1.87144
-1.28235
-0.928278
-0.706885
-0.559715
-0.455646
-0.378767
-0.320195
-0.274492
-0.238121
-0.208661
-0.184388
-0.164026
-0.146605
-0.131371
-0.117723
-0.105169
-0.0933034
-0.0817778
-0.0702891
-0.0585658
-0.0463573
)
;

boundaryField
{
    movingWall
    {
        type            zeroGradient;
    }
    fixedWalls
    {
        type            zeroGradient;
    }
    frontAndBack
    {
        type            empty;
    }
    procBoundary0to1
    {
        type            processor;
        value           nonuniform List<scalar> 
50
(
0.0372112
0.0369124
0.0366737
0.0364699
0.036271
0.0360685
0.0358534
0.0356141
0.0353381
0.0350118
0.0346207
0.034149
0.0335794
0.0328934
0.0320709
0.0310903
0.0299288
0.0285627
0.0269672
0.0251177
0.02299
0.0205612
0.0178113
0.0147244
0.01129
0.00750552
0.00337792
-0.00107403
-0.00581756
-0.0108041
-0.0159671
-0.021222
-0.0264651
-0.0315757
-0.0364185
-0.0408486
-0.0447186
-0.0478874
-0.050232
-0.0516594
-0.05212
-0.051619
-0.0502263
-0.0480807
-0.0453875
-0.0424077
-0.0394419
-0.036809
-0.0347691
-0.0334243
)
;
    }
}


// ************************************************************************* //
