/*--------------------------------*- C++ -*----------------------------------*\
| =========                 |                                                 |
| \\      /  F ield         | OpenFOAM: The Open Source CFD Toolbox           |
|  \\    /   O peration     | Version:  v2012                                 |
|   \\  /    A nd           | Website:  www.openfoam.com                      |
|    \\/     M anipulation  |                                                 |
\*---------------------------------------------------------------------------*/
FoamFile
{
    version     2.0;
    format      ascii;
    class       surfaceScalarField;
    location    "0.25";
    object      phi;
}
// * * * * * * * * * * * * * * * * * * * * * * * * * * * * * * * * * * * * * //

dimensions      [0 3 -1 0 0 0 0];
oriented        oriented;


internalField   nonuniform List<scalar> 
2425
(
1.17861e-09
-1.18631e-09
2.41777e-09
-1.23911e-09
2.51746e-09
-9.96589e-11
1.03957e-09
1.47792e-09
-2.09633e-09
3.13592e-09
-6.80227e-09
4.70597e-09
-1.2908e-08
6.10576e-09
-2.02059e-08
7.29784e-09
-2.84739e-08
8.26803e-09
-3.74882e-08
9.01431e-09
-4.70295e-08
9.54137e-09
-5.68873e-08
9.85778e-09
-6.68617e-08
9.97442e-09
-7.67652e-08
9.90354e-09
-8.64233e-08
9.65821e-09
-9.56753e-08
9.25199e-09
-1.04374e-07
8.6987e-09
-1.12386e-07
8.01231e-09
-1.19593e-07
7.2069e-09
-1.2589e-07
6.29665e-09
-1.31186e-07
5.29586e-09
-1.35405e-07
4.21904e-09
-1.38486e-07
3.08093e-09
-1.40382e-07
1.89658e-09
6.81468e-10
1.24972e-09
-2.436e-09
1.44828e-09
-1.4376e-09
-1.1603e-09
2.50899e-09
-7.38321e-09
7.70089e-09
-1.74707e-08
1.32234e-08
-3.13144e-08
1.85498e-08
-4.85891e-08
2.33805e-08
-6.88451e-08
2.75538e-08
-9.15664e-08
3.09894e-08
-1.16208e-07
3.36555e-08
-1.42217e-07
3.55504e-08
-1.6905e-07
3.66917e-08
-1.96185e-07
3.71091e-08
-2.23122e-07
3.68403e-08
-2.49392e-07
3.59284e-08
-2.7456e-07
3.44201e-08
-2.98225e-07
3.23642e-08
-3.20024e-07
2.98114e-08
-3.39631e-07
2.68133e-08
-3.56757e-07
2.34226e-08
-3.71154e-07
1.9693e-08
-3.82614e-07
1.56792e-08
-3.9097e-07
1.14367e-08
-3.96096e-07
7.02282e-09
2.49587e-09
1.54458e-10
-2.5904e-09
-2.40477e-09
1.12169e-09
-9.35149e-09
9.45576e-09
-2.15231e-08
1.98726e-08
-3.91857e-08
3.0886e-08
-6.21929e-08
4.15569e-08
-9.01152e-08
5.13028e-08
-1.22341e-07
5.97795e-08
-1.58148e-07
6.67965e-08
-1.96755e-07
7.22625e-08
-2.37357e-07
7.61521e-08
-2.79149e-07
7.84841e-08
-3.21347e-07
7.9307e-08
-3.63197e-07
7.869e-08
-4.03985e-07
7.67166e-08
-4.43044e-07
7.34798e-08
-4.7976e-07
6.90798e-08
-5.1357e-07
6.36216e-08
-5.43971e-07
5.72138e-08
-5.70516e-07
4.99682e-08
-5.92822e-07
4.19992e-08
-6.10567e-07
3.34238e-08
-6.23492e-07
2.43617e-08
-6.31405e-07
1.49355e-08
5.27087e-09
-1.37751e-09
-1.21285e-09
-7.52453e-09
7.26874e-09
-1.97089e-08
2.16402e-08
-3.85718e-08
3.87354e-08
-6.42584e-08
5.65726e-08
-9.65204e-08
7.3819e-08
-1.34815e-07
8.95978e-08
-1.78395e-07
1.03359e-07
-2.26373e-07
1.14775e-07
-2.77786e-07
1.23675e-07
-3.31628e-07
1.29994e-07
-3.86888e-07
1.33744e-07
-4.4257e-07
1.34989e-07
-4.97712e-07
1.33832e-07
-5.51397e-07
1.30402e-07
-6.02767e-07
1.24849e-07
-6.51023e-07
1.17336e-07
-6.95438e-07
1.08036e-07
-7.35355e-07
9.71315e-08
-7.70196e-07
8.48094e-08
-7.99461e-07
7.12633e-08
-8.22728e-07
5.66914e-08
-8.39664e-07
4.12973e-08
-8.50017e-07
2.52892e-08
8.88109e-09
-3.02014e-09
1.80732e-09
-1.311e-08
1.73586e-08
-3.0981e-08
3.95112e-08
-5.69423e-08
6.46967e-08
-9.09172e-08
9.05475e-08
-1.32493e-07
1.15394e-07
-1.80984e-07
1.3809e-07
-2.35504e-07
1.57878e-07
-2.9502e-07
1.74291e-07
-3.58412e-07
1.87067e-07
-4.24509e-07
1.96092e-07
-4.9213e-07
2.01365e-07
-5.60105e-07
2.02964e-07
-6.273e-07
2.01027e-07
-6.92631e-07
1.95733e-07
-7.55076e-07
1.87295e-07
-8.13688e-07
1.75948e-07
-8.67598e-07
1.61946e-07
-9.16022e-07
1.45555e-07
-9.58267e-07
1.27055e-07
-9.93735e-07
1.06731e-07
-1.02192e-06
8.48804e-08
-1.04243e-06
6.18058e-08
-1.05496e-06
3.78193e-08
1.32403e-08
-4.63988e-09
6.4472e-09
-1.87498e-08
3.14685e-08
-4.24621e-08
6.32236e-08
-7.56864e-08
9.7921e-08
-1.18059e-07
1.3292e-07
-1.68951e-07
1.66286e-07
-2.27502e-07
1.96641e-07
-2.92671e-07
2.23047e-07
-3.63279e-07
2.449e-07
-4.38061e-07
2.61848e-07
-5.15701e-07
2.73731e-07
-5.94869e-07
2.80533e-07
-6.7425e-07
2.82345e-07
-7.52564e-07
2.79341e-07
-8.28586e-07
2.71755e-07
-9.01162e-07
2.5987e-07
-9.69214e-07
2.44e-07
-1.03176e-06
2.24489e-07
-1.0879e-06
2.01699e-07
-1.13685e-06
1.7601e-07
-1.17794e-06
1.47817e-07
-1.21059e-06
1.17526e-07
-1.23433e-06
8.55538e-08
-1.24885e-06
5.23309e-08
1.82968e-08
-6.18497e-09
1.26322e-08
-2.42495e-08
4.9533e-08
-5.37825e-08
9.27566e-08
-9.42752e-08
1.38414e-07
-1.45041e-07
1.83686e-07
-2.05199e-07
2.26444e-07
-2.73686e-07
2.65128e-07
-3.49286e-07
2.98647e-07
-4.30667e-07
3.26281e-07
-5.16418e-07
3.47599e-07
-6.05087e-07
3.62401e-07
-6.95211e-07
3.70657e-07
-7.85345e-07
3.72479e-07
-8.74084e-07
3.6808e-07
-9.60083e-07
3.57754e-07
-1.04207e-06
3.41859e-07
-1.11887e-06
3.20796e-07
-1.18939e-06
2.95007e-07
-1.25265e-06
2.64959e-07
-1.30778e-06
2.31144e-07
-1.35404e-06
1.94074e-07
-1.39079e-06
1.54277e-07
-1.41753e-06
1.12295e-07
-1.43389e-06
6.86884e-08
2.40291e-08
-7.64338e-09
2.02755e-08
-2.95365e-08
7.1426e-08
-6.478e-08
1.28e-07
-1.12455e-07
1.86089e-07
-1.71539e-07
2.4277e-07
-2.40877e-07
2.95782e-07
-3.19178e-07
3.4343e-07
-4.05037e-07
3.84505e-07
-4.96954e-07
4.18198e-07
-5.93372e-07
4.44017e-07
-6.92702e-07
4.6173e-07
-7.93354e-07
4.7131e-07
-8.93765e-07
4.7289e-07
-9.92418e-07
4.66733e-07
-1.08786e-06
4.53199e-07
-1.17873e-06
4.32726e-07
-1.26375e-06
4.05813e-07
-1.34175e-06
3.73005e-07
-1.41167e-06
3.34883e-07
-1.47258e-06
2.92059e-07
-1.52368e-06
2.45171e-07
-1.56428e-06
1.94877e-07
-1.59384e-06
1.41857e-07
-1.61196e-06
8.68067e-08
3.04424e-08
-9.02095e-09
2.92965e-08
-3.46021e-08
9.70072e-08
-7.54114e-08
1.68809e-07
-1.30141e-07
2.40818e-07
-1.97432e-07
3.10061e-07
-2.75843e-07
3.74193e-07
-3.63842e-07
4.31429e-07
-4.59818e-07
4.80481e-07
-5.62095e-07
5.20475e-07
-6.68958e-07
5.50881e-07
-7.78683e-07
5.71455e-07
-8.89555e-07
5.82182e-07
-9.99898e-07
5.83233e-07
-1.10809e-06
5.74926e-07
-1.21259e-06
5.57698e-07
-1.31194e-06
5.32077e-07
-1.40479e-06
4.98663e-07
-1.4899e-06
4.58114e-07
-1.56615e-06
4.11134e-07
-1.63255e-06
3.58461e-07
-1.68825e-06
3.00866e-07
-1.73252e-06
2.39147e-07
-1.76478e-06
1.74124e-07
-1.78462e-06
1.06642e-07
3.75649e-08
-1.03306e-08
3.96271e-08
-3.94692e-08
1.26146e-07
-8.56988e-08
2.15039e-07
-1.47346e-07
3.02466e-07
-2.22723e-07
3.85438e-07
-3.10099e-07
4.61568e-07
-4.07689e-07
5.2902e-07
-5.13666e-07
5.86458e-07
-6.26167e-07
6.32975e-07
-7.43314e-07
6.68029e-07
-8.63242e-07
6.91382e-07
-9.8411e-07
7.03051e-07
-1.10413e-06
7.03256e-07
-1.22159e-06
6.92386e-07
-1.33486e-06
6.70964e-07
-1.4424e-06
6.39617e-07
-1.54279e-06
5.99057e-07
-1.63474e-06
5.50062e-07
-1.71707e-06
4.93463e-07
-1.78874e-06
4.30135e-07
-1.84887e-06
3.60987e-07
-1.89668e-06
2.86962e-07
-1.93159e-06
2.09029e-07
-1.95313e-06
1.28183e-07
4.54452e-08
-1.15875e-08
5.12146e-08
-4.41751e-08
1.58733e-07
-9.56979e-08
2.66562e-07
-1.6414e-07
3.70908e-07
-2.47492e-07
4.6879e-07
-3.43733e-07
5.57809e-07
-4.50823e-07
6.3611e-07
-5.66707e-07
7.02342e-07
-6.89327e-07
7.55595e-07
-8.16638e-07
7.9534e-07
-9.46625e-07
8.21369e-07
-1.07733e-06
8.33751e-07
-1.20684e-06
8.32773e-07
-1.33337e-06
8.18909e-07
-1.45518e-06
7.9278e-07
-1.57069e-06
7.55125e-07
-1.67841e-06
7.06776e-07
-1.77699e-06
6.4864e-07
-1.86521e-06
5.81685e-07
-1.942e-06
5.06924e-07
-2.00643e-06
4.25414e-07
-2.05771e-06
3.38245e-07
-2.09522e-06
2.46539e-07
-2.11848e-06
1.51447e-07
5.41491e-08
-1.28067e-08
6.40213e-08
-4.87621e-08
1.94689e-07
-1.0548e-07
3.23279e-07
-1.80617e-07
4.46046e-07
-2.71855e-07
5.60028e-07
-3.76882e-07
6.62836e-07
-4.93397e-07
7.52626e-07
-6.19116e-07
8.2806e-07
-7.51775e-07
8.88255e-07
-8.89156e-07
9.32721e-07
-1.02909e-06
9.61307e-07
-1.1695e-06
9.74154e-07
-1.30836e-06
9.71637e-07
-1.44379e-06
9.54333e-07
-1.57398e-06
9.22974e-07
-1.69728e-06
8.78424e-07
-1.81215e-06
8.21646e-07
-1.91719e-06
7.53687e-07
-2.01116e-06
6.75654e-07
-2.09295e-06
5.8871e-07
-2.16159e-06
4.94059e-07
-2.21629e-06
3.92946e-07
-2.2564e-06
2.86646e-07
-2.28142e-06
1.76469e-07
6.37571e-08
-1.40025e-08
7.80238e-08
-5.32727e-08
2.33959e-07
-1.15119e-07
3.85126e-07
-1.96886e-07
5.27813e-07
-2.95948e-07
6.59089e-07
-4.09705e-07
7.76593e-07
-5.35593e-07
8.78514e-07
-6.71089e-07
9.63557e-07
-8.13726e-07
1.03089e-06
-9.61101e-07
1.0801e-06
-1.1109e-06
1.1111e-06
-1.26089e-06
1.12415e-06
-1.40898e-06
1.11972e-06
-1.55316e-06
1.09851e-06
-1.69158e-06
1.06139e-06
-1.82251e-06
1.00936e-06
-1.94438e-06
9.43515e-07
-2.05575e-06
8.65057e-07
-2.15534e-06
7.75244e-07
-2.24202e-06
6.7539e-07
-2.31482e-06
5.66852e-07
-2.3729e-06
4.5103e-07
-2.41561e-06
3.29356e-07
-2.44244e-06
2.03299e-07
7.43616e-08
-1.51875e-08
9.32114e-08
-5.77474e-08
2.76519e-07
-1.24691e-07
4.5207e-07
-2.13055e-07
6.16177e-07
-3.19909e-07
7.65942e-07
-4.42365e-07
8.9905e-07
-5.77593e-07
1.01374e-06
-7.22828e-07
1.10879e-06
-8.75389e-07
1.18345e-06
-1.03269e-06
1.2374e-06
-1.19226e-06
1.27067e-06
-1.35174e-06
1.28363e-06
-1.50892e-06
1.2769e-06
-1.66172e-06
1.25131e-06
-1.80821e-06
1.20789e-06
-1.94662e-06
1.14777e-06
-2.07533e-06
1.07223e-06
-2.19288e-06
9.82607e-07
-2.29797e-06
8.80329e-07
-2.38944e-06
7.66863e-07
-2.46631e-06
6.43724e-07
-2.52775e-06
5.12467e-07
-2.57308e-06
3.74681e-07
-2.60177e-06
2.31993e-07
8.60633e-08
-1.63734e-08
1.09585e-07
-6.22236e-08
3.22369e-07
-1.34265e-07
5.24111e-07
-2.29227e-07
7.11138e-07
-3.43873e-07
8.80588e-07
-4.75024e-07
1.0302e-06
-6.19576e-07
1.15829e-06
-7.7452e-07
1.26374e-06
-9.36956e-07
1.34589e-06
-1.10411e-06
1.40455e-06
-1.27336e-06
1.43991e-06
-1.4422e-06
1.45248e-06
-1.60833e-06
1.44303e-06
-1.76959e-06
1.41257e-06
-1.92398e-06
1.36228e-06
-2.06969e-06
1.29348e-06
-2.20507e-06
1.2076e-06
-2.32863e-06
1.10617e-06
-2.43907e-06
9.90764e-07
-2.53522e-06
8.63014e-07
-2.61609e-06
7.24595e-07
-2.68084e-06
5.77218e-07
-2.72879e-06
4.22628e-07
-2.7594e-06
2.62606e-07
9.89684e-08
-1.75703e-08
1.27155e-07
-6.67353e-08
3.71534e-07
-1.43907e-07
6.01283e-07
-2.45499e-07
8.1273e-07
-3.67965e-07
1.00305e-06
-5.07827e-07
1.17006e-06
-6.61704e-07
1.31217e-06
-8.26333e-07
1.42836e-06
-9.98593e-07
1.51815e-06
-1.17552e-06
1.58148e-06
-1.35432e-06
1.61872e-06
-1.53239e-06
1.63055e-06
-1.70729e-06
1.61794e-06
-1.87681e-06
1.58208e-06
-2.03888e-06
1.52435e-06
-2.19167e-06
1.44626e-06
-2.3335e-06
1.34943e-06
-2.46287e-06
1.23555e-06
-2.57847e-06
1.10637e-06
-2.67915e-06
9.63691e-07
-2.76391e-06
8.09354e-07
-2.83191e-06
6.45221e-07
-2.88247e-06
4.73189e-07
-2.91506e-06
2.95188e-07
1.13184e-07
-1.87874e-08
1.45942e-07
-7.13135e-08
4.2406e-07
-1.53675e-07
6.83644e-07
-2.6196e-07
9.21016e-07
-3.92301e-07
1.13339e-06
-5.40911e-07
1.31867e-06
-7.04121e-07
1.47538e-06
-8.78409e-07
1.60265e-06
-1.06043e-06
1.70017e-06
-1.24702e-06
1.76807e-06
-1.43523e-06
1.80693e-06
-1.62232e-06
1.81764e-06
-1.80577e-06
1.80139e-06
-1.98329e-06
1.7596e-06
-2.15278e-06
1.69384e-06
-2.31236e-06
1.60585e-06
-2.46035e-06
1.49743e-06
-2.59527e-06
1.37046e-06
-2.7158e-06
1.2269e-06
-2.82081e-06
1.0687e-06
-2.9093e-06
8.9785e-07
-2.98046e-06
7.16381e-07
-3.0336e-06
5.26331e-07
-3.06819e-06
3.29772e-07
1.28814e-07
-2.00331e-08
1.65976e-07
-7.59869e-08
4.80014e-07
-1.63625e-07
7.71282e-07
-2.78693e-07
1.03608e-06
-4.16986e-07
1.27169e-06
-5.74394e-07
1.47608e-06
-7.4695e-07
1.64794e-06
-9.30863e-07
1.78657e-06
-1.12255e-06
1.89185e-06
-1.31866e-06
1.96418e-06
-1.51608e-06
2.00435e-06
-1.71194e-06
2.01351e-06
-1.90365e-06
1.9931e-06
-2.08884e-06
1.94478e-06
-2.26538e-06
1.87039e-06
-2.43139e-06
1.77186e-06
-2.58519e-06
1.65123e-06
-2.72531e-06
1.51058e-06
-2.85046e-06
1.35205e-06
-2.95952e-06
1.17776e-06
-3.05154e-06
9.89871e-07
-3.12571e-06
7.90551e-07
-3.18136e-06
5.81983e-07
-3.21796e-06
3.6637e-07
1.45953e-07
-2.13155e-08
1.87291e-07
-8.07828e-08
5.39481e-07
-1.73808e-07
8.64308e-07
-2.95775e-07
1.15805e-06
-4.42117e-07
1.41803e-06
-6.08385e-07
1.64235e-06
-7.90296e-07
1.82985e-06
-9.83782e-07
1.98005e-06
-1.18502e-06
2.09309e-06
-1.39045e-06
2.16961e-06
-1.59681e-06
2.21071e-06
-1.80112e-06
2.21782e-06
-2.00069e-06
2.19267e-06
-2.19312e-06
2.13721e-06
-2.37626e-06
2.05353e-06
-2.54823e-06
1.94382e-06
-2.70737e-06
1.81037e-06
-2.85224e-06
1.65546e-06
-2.9816e-06
1.4814e-06
-3.09436e-06
1.29052e-06
-3.18962e-06
1.08513e-06
-3.26659e-06
8.67525e-07
-3.32464e-06
6.40027e-07
-3.36323e-06
4.0496e-07
1.64678e-07
-2.26424e-08
2.09933e-07
-8.57282e-08
6.02567e-07
-1.84278e-07
9.62857e-07
-3.13281e-07
1.28705e-06
-4.67786e-07
1.57254e-06
-6.4298e-07
1.81754e-06
-8.34247e-07
2.02112e-06
-1.03722e-06
2.18303e-06
-1.24784e-06
2.3037e-06
-1.46233e-06
2.38411e-06
-1.67729e-06
2.42566e-06
-1.88961e-06
2.43014e-06
-2.09656e-06
2.39961e-06
-2.29567e-06
2.33632e-06
-2.48482e-06
2.24268e-06
-2.66215e-06
2.12115e-06
-2.82603e-06
1.97425e-06
-2.97509e-06
1.80451e-06
-3.10812e-06
1.61444e-06
-3.22413e-06
1.40653e-06
-3.32224e-06
1.18324e-06
-3.40173e-06
9.47015e-07
-3.46199e-06
7.00282e-07
-3.5025e-06
4.45474e-07
1.85046e-07
-2.40221e-08
2.33956e-07
-9.08513e-08
6.69396e-07
-1.95086e-07
1.06709e-06
-3.31286e-07
1.42325e-06
-4.94084e-07
1.73533e-06
-6.78271e-07
2.00173e-06
-8.78875e-07
2.22172e-06
-1.09122e-06
2.39538e-06
-1.31099e-06
2.52347e-06
-1.5342e-06
2.60732e-06
-1.7573e-06
2.64876e-06
-1.97709e-06
2.64993e-06
-2.19076e-06
2.61329e-06
-2.39587e-06
2.54143e-06
-2.5903e-06
2.4371e-06
-2.77222e-06
2.30307e-06
-2.9401e-06
2.14213e-06
-3.09262e-06
1.95703e-06
-3.22868e-06
1.75049e-06
-3.34733e-06
1.52519e-06
-3.44781e-06
1.28371e-06
-3.52943e-06
1.02864e-06
-3.59164e-06
7.62492e-07
-3.63396e-06
4.87794e-07
2.07078e-07
-2.54638e-08
2.59419e-07
-9.6183e-08
7.40116e-07
-2.06291e-07
1.1772e-06
-3.49874e-07
1.56684e-06
-5.21105e-07
1.90656e-06
-7.14347e-07
2.19497e-06
-9.24244e-07
2.43162e-06
-1.14579e-06
2.61693e-06
-1.37439e-06
2.75207e-06
-1.60588e-06
2.83881e-06
-1.83654e-06
2.87942e-06
-2.0631e-06
2.87649e-06
-2.28271e-06
2.8329e-06
-2.49295e-06
2.75167e-06
-2.69173e-06
2.63588e-06
-2.87731e-06
2.48866e-06
-3.04825e-06
2.31307e-06
-3.20335e-06
2.11212e-06
-3.34159e-06
1.88874e-06
-3.46216e-06
1.64576e-06
-3.56437e-06
1.38592e-06
-3.64763e-06
1.1119e-06
-3.71144e-06
8.26307e-07
-3.75538e-06
5.31731e-07
2.30755e-07
-2.69782e-08
2.86398e-07
-1.01759e-07
8.14897e-07
-2.17958e-07
1.2934e-06
-3.69136e-07
1.71801e-06
-5.48955e-07
2.08638e-06
-7.51306e-07
2.39732e-06
-9.70415e-07
2.65073e-06
-1.20093e-06
2.84744e-06
-1.43796e-06
2.9891e-06
-1.67714e-06
3.078e-06
-1.91463e-06
3.1169e-06
-2.14708e-06
3.10894e-06
-2.37165e-06
3.05747e-06
-2.58593e-06
2.96595e-06
-2.78793e-06
2.83789e-06
-2.97603e-06
2.67676e-06
-3.14889e-06
2.48593e-06
-3.30547e-06
2.26869e-06
-3.44488e-06
2.02816e-06
-3.56646e-06
1.76733e-06
-3.66962e-06
1.48908e-06
-3.75389e-06
1.19617e-06
-3.81885e-06
8.91273e-07
-3.86414e-06
5.77014e-07
2.56004e-07
-2.85782e-08
3.14976e-07
-1.07623e-07
8.93942e-07
-2.30168e-07
1.41594e-06
-3.89182e-07
1.87703e-06
-5.77755e-07
2.27496e-06
-7.89254e-07
2.60882e-06
-1.01745e-06
2.87892e-06
-1.2566e-06
3.08659e-06
-1.50154e-06
3.23404e-06
-1.74769e-06
3.32415e-06
-1.99109e-06
3.3603e-06
-2.22835e-06
3.3462e-06
-2.45665e-06
3.28576e-06
-2.67366e-06
3.18296e-06
-2.87751e-06
3.04174e-06
-3.06672e-06
2.86597e-06
-3.24013e-06
2.65935e-06
-3.39686e-06
2.42542e-06
-3.53622e-06
2.16752e-06
-3.65769e-06
1.8888e-06
-3.76085e-06
1.59224e-06
-3.84536e-06
1.28067e-06
-3.91089e-06
9.56808e-07
-3.95716e-06
6.23279e-07
2.82687e-07
-3.02802e-08
3.45256e-07
-1.13829e-07
9.7749e-07
-2.43018e-07
1.54513e-06
-4.10144e-07
2.04415e-06
-6.07651e-07
2.47246e-06
-8.28318e-07
2.82949e-06
-1.06541e-06
3.11601e-06
-1.31278e-06
3.33396e-06
-1.56495e-06
3.48621e-06
-1.81716e-06
3.57636e-06
-2.06533e-06
3.60847e-06
-2.30607e-06
3.58694e-06
-2.53661e-06
3.5163e-06
-2.75476e-06
3.4011e-06
-2.9588e-06
3.24578e-06
-3.14744e-06
3.05461e-06
-3.31976e-06
2.83166e-06
-3.47507e-06
2.58073e-06
-3.6129e-06
2.30536e-06
-3.73295e-06
2.00884e-06
-3.83496e-06
1.69425e-06
-3.91875e-06
1.36447e-06
-3.98414e-06
1.0222e-06
-4.03091e-06
6.70051e-07
3.10589e-07
-3.21047e-08
3.77361e-07
-1.20443e-07
1.06583e-06
-2.56631e-07
1.68132e-06
-4.3219e-07
2.21971e-06
-6.38826e-07
2.6791e-06
-8.68654e-07
3.05932e-06
-1.11437e-06
3.36173e-06
-1.36941e-06
3.58899e-06
-1.62796e-06
3.74477e-06
-1.88508e-06
3.83348e-06
-2.13662e-06
3.86001e-06
-2.37922e-06
3.82954e-06
-2.61021e-06
3.7473e-06
-2.82758e-06
3.61847e-06
-3.02983e-06
3.44803e-06
-3.21592e-06
3.24071e-06
-3.38519e-06
3.00093e-06
-3.53721e-06
2.73276e-06
-3.6718e-06
2.43994e-06
-3.78885e-06
2.12589e-06
-3.88835e-06
1.79376e-06
-3.97031e-06
1.44642e-06
-4.03467e-06
1.08656e-06
-4.08135e-06
7.16733e-07
3.39403e-07
-3.40783e-08
4.11439e-07
-1.27554e-07
1.1593e-06
-2.71163e-07
1.82493e-06
-4.55529e-07
2.40408e-06
-6.71505e-07
2.89508e-06
-9.10452e-07
3.29826e-06
-1.16444e-06
3.61572e-06
-1.42642e-06
3.85097e-06
-1.69029e-06
4.00864e-06
-1.95091e-06
4.0941e-06
-2.20411e-06
4.11321e-06
-2.44659e-06
4.07202e-06
-2.67588e-06
3.97659e-06
-2.89018e-06
3.83277e-06
-3.0883e-06
3.64614e-06
-3.2695e-06
3.42191e-06
-3.43343e-06
3.16486e-06
-3.58001e-06
2.87933e-06
-3.70932e-06
2.56925e-06
-3.82156e-06
2.23814e-06
-3.91697e-06
1.88917e-06
-3.99576e-06
1.52521e-06
-4.05806e-06
1.14887e-06
-4.10392e-06
7.62594e-07
3.68724e-07
-3.62355e-08
4.47674e-07
-1.35272e-07
1.25834e-06
-2.86814e-07
1.97647e-06
-4.80426e-07
2.59769e-06
-7.05972e-07
3.12062e-06
-9.53945e-07
3.54623e-06
-1.21572e-06
3.8775e-06
-1.48374e-06
4.11899e-06
-1.75156e-06
4.27646e-06
-2.01394e-06
4.35647e-06
-2.2667e-06
4.36597e-06
-2.50671e-06
4.31203e-06
-2.73172e-06
4.2016e-06
-2.94026e-06
4.04131e-06
-3.1315e-06
3.83738e-06
-3.30508e-06
3.59549e-06
-3.46104e-06
3.32082e-06
-3.59966e-06
3.01795e-06
-3.72138e-06
2.69097e-06
-3.82673e-06
2.34349e-06
-3.91622e-06
1.97866e-06
-3.99031e-06
1.5993e-06
-4.04934e-06
1.2079e-06
-4.09351e-06
8.06758e-07
3.98032e-07
-3.86212e-08
4.86296e-07
-1.43742e-07
1.36346e-06
-3.03837e-07
2.13657e-06
-5.07217e-07
2.80107e-06
-7.42578e-07
3.35598e-06
-9.99416e-07
3.80307e-06
-1.26833e-06
4.14641e-06
-1.5412e-06
4.39186e-06
-1.81131e-06
4.54658e-06
-2.0733e-06
4.61846e-06
-2.32309e-06
4.61576e-06
-2.55778e-06
4.54672e-06
-2.77547e-06
4.41929e-06
-2.97509e-06
4.24093e-06
-3.15625e-06
4.01854e-06
-3.31907e-06
3.75831e-06
-3.46403e-06
3.46577e-06
-3.59184e-06
3.14576e-06
-3.70335e-06
2.80248e-06
-3.79944e-06
2.43958e-06
-3.88095e-06
2.06017e-06
-3.94861e-06
1.66695e-06
-4.00298e-06
1.26226e-06
-4.04442e-06
8.48204e-07
4.2669e-07
-4.12942e-08
5.2759e-07
-1.53151e-07
1.47532e-06
-3.22559e-07
2.30598e-06
-5.36323e-07
3.01483e-06
-7.81756e-07
3.60142e-06
-1.0472e-06
4.06851e-06
-1.32237e-06
4.42158e-06
-1.59861e-06
4.6681e-06
-1.8689e-06
4.81687e-06
-2.12787e-06
4.87742e-06
-2.37162e-06
4.85952e-06
-2.59761e-06
4.77271e-06
-2.80439e-06
4.62606e-06
-2.9914e-06
4.42795e-06
-3.15881e-06
4.18595e-06
-3.30728e-06
3.90678e-06
-3.43781e-06
3.5963e-06
-3.55161e-06
3.25956e-06
-3.64998e-06
2.90085e-06
-3.73419e-06
2.52379e-06
-3.80542e-06
2.13141e-06
-3.86471e-06
1.72623e-06
-3.91285e-06
1.31041e-06
-3.95041e-06
8.85763e-07
4.5394e-07
-4.43313e-08
5.71921e-07
-1.6374e-07
1.59473e-06
-3.43397e-07
2.48563e-06
-5.68271e-07
3.23971e-06
-8.24028e-07
3.85717e-06
-1.09767e-06
4.34215e-06
-1.37795e-06
4.70187e-06
-1.65562e-06
4.94577e-06
-1.92346e-06
5.08471e-06
-2.17617e-06
5.13014e-06
-2.4102e-06
5.09355e-06
-2.62347e-06
4.98598e-06
-2.81513e-06
4.81772e-06
-2.98529e-06
4.59811e-06
-3.13475e-06
4.33541e-06
-3.26481e-06
4.03684e-06
-3.37709e-06
3.70858e-06
-3.47334e-06
3.35581e-06
-3.55533e-06
2.98285e-06
-3.62479e-06
2.59324e-06
-3.68324e-06
2.18987e-06
-3.73204e-06
1.77503e-06
-3.77225e-06
1.35061e-06
-3.80462e-06
9.18136e-07
4.78908e-07
-4.78342e-08
6.19755e-07
-1.75824e-07
1.72272e-06
-3.6688e-07
2.67669e-06
-6.03718e-07
3.47655e-06
-8.7002e-07
4.12348e-06
-1.15123e-06
4.62336e-06
-1.43505e-06
4.98569e-06
-1.71168e-06
5.2224e-06
-1.97378e-06
5.3468e-06
-2.21627e-06
5.37264e-06
-2.43612e-06
5.3134e-06
-2.63192e-06
5.18178e-06
-2.80359e-06
4.98939e-06
-2.95201e-06
4.74653e-06
-3.07878e-06
4.46218e-06
-3.18595e-06
4.14401e-06
-3.27577e-06
3.7984e-06
-3.3506e-06
3.43064e-06
-3.41275e-06
3.045e-06
-3.46437e-06
2.64486e-06
-3.50738e-06
2.23288e-06
-3.54344e-06
1.81109e-06
-3.57387e-06
1.38104e-06
-3.59965e-06
9.43911e-07
5.00614e-07
-5.19378e-08
6.71693e-07
-1.89812e-07
1.86059e-06
-3.93685e-07
2.88056e-06
-6.4347e-07
3.72633e-06
-9.20451e-07
4.40046e-06
-1.20828e-06
4.91119e-06
-1.49353e-06
5.27094e-06
-1.76591e-06
5.49477e-06
-2.01811e-06
5.599e-06
-2.24554e-06
5.60007e-06
-2.44588e-06
5.51374e-06
-2.61863e-06
5.35453e-06
-2.76466e-06
5.13542e-06
-2.88584e-06
4.86771e-06
-2.98466e-06
4.561e-06
-3.06398e-06
4.22332e-06
-3.1268e-06
3.86122e-06
-3.17611e-06
3.47995e-06
-3.21475e-06
3.08364e-06
-3.24532e-06
2.67543e-06
-3.27011e-06
2.25767e-06
-3.29109e-06
1.83207e-06
-3.30984e-06
1.39979e-06
-3.32754e-06
9.61603e-07
5.17999e-07
-5.68228e-08
7.28516e-07
-2.06241e-07
2.01001e-06
-4.24672e-07
3.09899e-06
-6.88507e-07
3.99017e-06
-9.76126e-07
4.68808e-06
-1.26912e-06
5.20419e-06
-1.55292e-06
5.55474e-06
-1.81687e-06
5.75872e-06
-2.05397e-06
5.8361e-06
-2.2604e-06
5.80649e-06
-2.43486e-06
5.6882e-06
-2.57804e-06
5.49771e-06
-2.69202e-06
5.2494e-06
-2.77978e-06
4.95547e-06
-2.84487e-06
4.62609e-06
-2.89104e-06
4.26949e-06
-2.92206e-06
3.89225e-06
-2.94158e-06
3.49947e-06
-2.95295e-06
3.09501e-06
-2.95921e-06
2.68168e-06
-2.96301e-06
2.26147e-06
-2.96658e-06
1.83565e-06
-2.97174e-06
1.40495e-06
-2.97985e-06
9.6971e-07
5.29956e-07
-6.27344e-08
7.9125e-07
-2.25822e-07
2.1731e-06
-4.60936e-07
3.33411e-06
-7.40003e-07
4.26923e-06
-1.03788e-06
4.98596e-06
-1.33386e-06
5.50017e-06
-1.61225e-06
5.83313e-06
-1.86231e-06
6.00879e-06
-2.07776e-06
6.05155e-06
-2.25592e-06
5.98465e-06
-2.39695e-06
5.82923e-06
-2.50304e-06
5.6038e-06
-2.57772e-06
5.32407e-06
-2.62529e-06
5.00304e-06
-2.65044e-06
4.65123e-06
-2.65789e-06
4.27694e-06
-2.6522e-06
3.88657e-06
-2.63763e-06
3.4849e-06
-2.61803e-06
3.07541e-06
-2.59682e-06
2.66048e-06
-2.57696e-06
2.2416e-06
-2.5609e-06
1.81959e-06
-2.55064e-06
1.3947e-06
-2.54771e-06
9.6678e-07
5.35388e-07
-7.00102e-08
8.6126e-07
-2.49498e-07
2.35259e-06
-5.03863e-07
3.58847e-06
-7.99322e-07
4.56469e-06
-1.10649e-06
5.29312e-06
-1.40213e-06
5.7958e-06
-1.66965e-06
6.10066e-06
-1.89871e-06
6.23785e-06
-2.08424e-06
6.23708e-06
-2.22532e-06
6.12573e-06
-2.32403e-06
5.92794e-06
-2.38444e-06
5.66421e-06
-2.41179e-06
5.35142e-06
-2.41189e-06
5.00314e-06
-2.39063e-06
4.62997e-06
-2.35371e-06
4.24002e-06
-2.30645e-06
3.83931e-06
-2.25368e-06
3.43212e-06
-2.19966e-06
3.02139e-06
-2.1481e-06
2.60892e-06
-2.10218e-06
2.19568e-06
-2.06452e-06
1.78193e-06
-2.03725e-06
1.36742e-06
-2.02198e-06
9.51512e-07
5.33269e-07
-7.91247e-08
9.40385e-07
-2.78539e-07
2.552e-06
-5.55203e-07
3.86514e-06
-8.67988e-07
4.87748e-06
-1.18244e-06
5.60757e-06
-1.47275e-06
6.08611e-06
-1.72188e-06
6.34979e-06
-1.9206e-06
6.43657e-06
-2.06588e-06
6.38236e-06
-2.15926e-06
6.21911e-06
-2.20532e-06
5.974e-06
-2.21042e-06
5.66931e-06
-2.18178e-06
5.32278e-06
-2.1268e-06
4.94816e-06
-2.05262e-06
4.5558e-06
-1.96588e-06
4.15328e-06
-1.87255e-06
3.74598e-06
-1.7779e-06
3.33747e-06
-1.68649e-06
2.92998e-06
-1.60221e-06
2.52464e-06
-1.52832e-06
2.12179e-06
-1.46752e-06
1.72113e-06
-1.42196e-06
1.32186e-06
-1.39331e-06
9.22863e-07
5.2273e-07
-9.0761e-08
1.03115e-06
-3.1467e-07
2.77591e-06
-6.17138e-07
4.1676e-06
-9.47555e-07
5.20789e-06
-1.26558e-06
5.92559e-06
-1.54305e-06
6.36359e-06
-1.76339e-06
6.57013e-06
-1.9196e-06
6.59277e-06
-2.01178e-06
6.47454e-06
-2.04484e-06
6.25217e-06
-2.02648e-06
5.95565e-06
-1.96578e-06
5.6086e-06
-1.87209e-06
5.2291e-06
-1.75447e-06
4.83054e-06
-1.62123e-06
4.42255e-06
-1.47978e-06
4.01183e-06
-1.33658e-06
3.60278e-06
-1.19716e-06
3.19806e-06
-1.0662e-06
2.79902e-06
-9.4759e-07
2.40603e-06
-8.44544e-07
2.01875e-06
-7.59682e-07
1.63626e-06
-6.95098e-07
1.25728e-06
-6.52418e-07
8.80184e-07
5.03153e-07
-1.05931e-07
1.13708e-06
-3.60262e-07
3.03024e-06
-6.92324e-07
4.49967e-06
-1.03932e-06
5.55489e-06
-1.35437e-06
6.24064e-06
-1.60782e-06
6.61704e-06
-1.78507e-06
6.74739e-06
-1.88303e-06
6.69073e-06
-1.90637e-06
6.49789e-06
-1.86441e-06
6.2102e-06
-1.76864e-06
5.85987e-06
-1.63112e-06
5.47109e-06
-1.46345e-06
5.06143e-06
-1.27618e-06
4.64327e-06
-1.0786e-06
4.22497e-06
-8.7864e-07
3.81187e-06
-6.82969e-07
3.40711e-06
-4.97118e-07
3.01221e-06
-3.25622e-07
2.62752e-06
-1.72172e-07
2.25258e-06
-3.97544e-08
1.88633e-06
6.92351e-08
1.52727e-06
1.52889e-07
1.17362e-06
2.09716e-07
8.23357e-07
4.74283e-07
-1.26185e-07
1.26326e-06
-4.18596e-07
3.32265e-06
-7.83822e-07
4.86489e-06
-1.14363e-06
5.91469e-06
-1.44461e-06
6.54162e-06
-1.65749e-06
6.82992e-06
-1.7722e-06
6.8621e-06
-1.79188e-06
6.71041e-06
-1.72755e-06
6.43356e-06
-1.59401e-06
6.07667e-06
-1.40709e-06
5.67295e-06
-1.18195e-06
5.24595e-06
-9.32231e-07
4.81171e-06
-6.69671e-07
4.38071e-06
-4.04106e-07
3.9594e-06
-1.43589e-07
3.55135e-06
1.05386e-07
3.15814e-06
3.37634e-07
2.77996e-06
5.49051e-07
2.4161e-06
7.36399e-07
2.06523e-06
8.9713e-07
1.7256e-06
1.02923e-06
1.39517e-06
1.13112e-06
1.07174e-06
1.20153e-06
7.52946e-07
4.36331e-07
-1.53973e-07
1.41724e-06
-4.94194e-07
3.66287e-06
-8.94726e-07
5.26543e-06
-1.25851e-06
6.27847e-06
-1.52709e-06
6.8102e-06
-1.67528e-06
6.97812e-06
-1.70143e-06
6.88824e-06
-1.618e-06
6.62697e-06
-1.44428e-06
6.25984e-06
-1.20152e-06
5.83391e-06
-9.10042e-07
5.38148e-06
-5.87836e-07
4.92374e-06
-2.50037e-07
4.47391e-06
9.10455e-08
4.03963e-06
4.25654e-07
3.6248e-06
7.46193e-07
3.23081e-06
1.04684e-06
2.85749e-06
1.32317e-06
2.50363e-06
1.57184e-06
2.16743e-06
1.79034e-06
1.84673e-06
1.97677e-06
1.53917e-06
2.12967e-06
1.24228e-06
2.24789e-06
9.53518e-07
2.33051e-06
6.70324e-07
3.90076e-07
-1.93278e-07
1.61051e-06
-5.93123e-07
4.06272e-06
-1.02699e-06
5.69929e-06
-1.3767e-06
6.62818e-06
-1.58341e-06
7.01691e-06
-1.63253e-06
7.02723e-06
-1.53636e-06
6.79208e-06
-1.32031e-06
6.41092e-06
-1.0137e-06
5.95323e-06
-6.4458e-07
5.46478e-06
-2.37287e-07
4.97418e-06
1.88272e-07
4.49818e-06
6.16484e-07
4.0457e-06
1.03547e-06
3.62064e-06
1.43642e-06
3.22385e-06
1.81292e-06
2.85431e-06
2.1604e-06
2.51002e-06
2.47563e-06
2.1884e-06
2.7564e-06
1.88666e-06
3.00117e-06
1.60196e-06
3.20888e-06
1.33146e-06
3.37876e-06
1.07239e-06
3.51023e-06
8.22051e-07
3.60277e-06
5.77776e-07
3.36938e-07
-2.50658e-07
1.86117e-06
-7.22837e-07
4.53489e-06
-1.17831e-06
6.15477e-06
-1.47984e-06
6.92972e-06
-1.57872e-06
7.11578e-06
-1.48138e-06
6.9299e-06
-1.22123e-06
6.53192e-06
-8.40037e-07
6.02973e-06
-3.77887e-07
5.49108e-06
1.31244e-07
4.95565e-06
6.60579e-07
4.44485e-06
1.19005e-06
3.96871e-06
1.70518e-06
3.53056e-06
2.1959e-06
3.12993e-06
2.65539e-06
2.76436e-06
3.07925e-06
2.43045e-06
3.46475e-06
2.12451e-06
3.81033e-06
1.84282e-06
4.11517e-06
1.58182e-06
4.37893e-06
1.33821e-06
4.60152e-06
1.10887e-06
4.78298e-06
8.90935e-07
4.92334e-06
6.81689e-07
5.02257e-06
4.7855e-07
2.79015e-07
-3.36752e-07
2.19793e-06
-8.90172e-07
5.08831e-06
-1.33438e-06
6.59897e-06
-1.52678e-06
7.12213e-06
-1.44916e-06
7.03816e-06
-1.14385e-06
6.62459e-06
-6.72621e-07
6.06069e-06
-9.5222e-08
5.45234e-06
5.39168e-07
4.85669e-06
1.1936e-06
4.30122e-06
1.84199e-06
3.79646e-06
2.46683e-06
3.34387e-06
3.05698e-06
2.94041e-06
3.60577e-06
2.58115e-06
4.10955e-06
2.26057e-06
4.56672e-06
1.97329e-06
4.9769e-06
1.71433e-06
5.34049e-06
1.47923e-06
5.65828e-06
1.26403e-06
5.93123e-06
1.06526e-06
6.1603e-06
8.79804e-07
6.34633e-06
7.04901e-07
6.49e-06
5.3802e-07
6.59174e-06
3.76812e-07
2.19046e-07
-4.67158e-07
2.66508e-06
-1.09303e-06
5.71419e-06
-1.45057e-06
6.95652e-06
-1.43129e-06
7.10284e-06
-1.08154e-06
6.68841e-06
-4.96405e-07
6.03946e-06
2.30281e-07
5.334e-06
1.02419e-06
4.65843e-06
1.83293e-06
4.04795e-06
2.62247e-06
3.51168e-06
3.37223e-06
3.0467e-06
4.07087e-06
2.64523e-06
4.713e-06
2.29828e-06
5.29696e-06
1.9972e-06
5.82323e-06
1.73429e-06
6.29355e-06
1.50297e-06
6.71018e-06
1.2977e-06
7.07558e-06
1.11382e-06
7.39217e-06
9.47447e-07
7.66214e-06
7.95286e-07
7.88742e-06
6.54526e-07
8.06959e-06
5.22724e-07
8.2099e-06
3.9771e-07
8.3092e-06
2.77517e-07
1.60301e-07
-6.56502e-07
3.32158e-06
-1.2924e-06
6.35009e-06
-1.41007e-06
7.07418e-06
-1.02129e-06
6.71406e-06
-2.82548e-07
5.94967e-06
6.48698e-07
5.10821e-06
1.65423e-06
4.32847e-06
2.65783e-06
3.65483e-06
3.61566e-06
3.09012e-06
4.50545e-06
2.6219e-06
5.31809e-06
2.23405e-06
6.05205e-06
1.91128e-06
6.70975e-06
1.64057e-06
7.29556e-06
1.41139e-06
7.81452e-06
1.21533e-06
8.27172e-06
1.04578e-06
8.67193e-06
8.97492e-07
9.01944e-06
7.6631e-07
9.31801e-06
6.48874e-07
9.57085e-06
5.4245e-07
9.78061e-06
4.44765e-07
9.94943e-06
3.53898e-07
1.0079e-05
2.68181e-07
1.01704e-05
1.86126e-07
1.06362e-07
-8.8803e-07
4.20961e-06
-1.33348e-06
6.79554e-06
-9.35244e-07
6.67594e-06
2.92323e-08
5.74959e-06
1.2609e-06
4.718e-06
2.55956e-06
3.80955e-06
3.81282e-06
3.07521e-06
4.96777e-06
2.49989e-06
6.00601e-06
2.05187e-06
6.92691e-06
1.701e-06
7.73789e-06
1.42306e-06
8.44936e-06
1.19981e-06
9.07213e-06
1.01781e-06
9.6163e-06
8.67214e-07
1.00908e-05
7.40791e-07
1.05035e-05
6.33155e-07
1.08607e-05
5.40246e-07
1.11681e-05
4.58961e-07
1.14301e-05
3.86879e-07
1.16504e-05
3.22081e-07
1.18322e-05
2.63015e-07
1.19777e-05
2.08389e-07
1.20888e-05
1.57106e-07
1.21667e-05
1.08201e-07
6.07956e-08
-1.01533e-06
5.22495e-06
-7.47872e-07
6.52808e-06
5.83978e-07
5.34409e-06
2.29991e-06
4.03366e-06
4.01952e-06
2.99839e-06
5.58466e-06
2.2444e-06
6.94879e-06
1.71109e-06
8.1155e-06
1.33318e-06
9.10696e-06
1.06041e-06
9.94927e-06
8.58698e-07
1.06666e-05
7.05732e-07
1.12795e-05
5.86893e-07
1.18048e-05
4.92482e-07
1.22561e-05
4.15937e-07
1.26442e-05
3.52719e-07
1.29777e-05
2.99608e-07
1.32637e-05
2.54271e-07
1.35077e-05
2.14975e-07
1.37142e-05
1.80403e-07
1.38867e-05
1.49536e-07
1.40282e-05
1.2156e-07
1.41407e-05
9.58131e-08
1.42261e-05
7.17381e-08
1.42855e-05
4.88517e-08
2.67185e-08
-2.34976e-07
5.45992e-06
1.80398e-06
4.48912e-06
4.40146e-06
2.74662e-06
6.72176e-06
1.71336e-06
8.60683e-06
1.11332e-06
1.00972e-05