/*--------------------------------*- C++ -*----------------------------------*\
| =========                 |                                                 |
| \\      /  F ield         | OpenFOAM: The Open Source CFD Toolbox           |
|  \\    /   O peration     | Version:  v2012                                 |
|   \\  /    A nd           | Website:  www.openfoam.com                      |
|    \\/     M anipulation  |                                                 |
\*---------------------------------------------------------------------------*/
FoamFile
{
    version     2.0;
    format      ascii;
    class       volVectorField;
    location    "0.25";
    object      U;
}
// * * * * * * * * * * * * * * * * * * * * * * * * * * * * * * * * * * * * * //

dimensions      [0 1 -1 0 0 0 0];


internalField   nonuniform List<vector> 
1250
(
(3.2662e-05 -3.27929e-05 0)
(9.87346e-05 -4.0697e-05 0)
(0.000137255 -2.09665e-05 0)
(0.000106183 7.85684e-06 0)
(-8.7538e-06 3.77245e-05 0)
(-0.000206002 6.53319e-05 0)
(-0.000478224 8.93674e-05 0)
(-0.000815603 0.000109418 0)
(-0.0012072 0.00012546 0)
(-0.00164174 0.000137631 0)
(-0.00210808 0.000146138 0)
(-0.00259543 0.00015121 0)
(-0.00309348 0.00015309 0)
(-0.00359254 0.000152018 0)
(-0.00408355 0.000148233 0)
(-0.00455812 0.000141969 0)
(-0.00500855 0.000133454 0)
(-0.00542781 0.000122913 0)
(-0.00580962 0.000110564 0)
(-0.00614837 9.66272e-05 0)
(-0.00643917 8.13174e-05 0)
(-0.00667785 6.48523e-05 0)
(-0.00686099 4.74516e-05 0)
(-0.00698588 2.93393e-05 0)
(-0.00705059 1.07455e-05 0)
(4.10621e-05 -9.91733e-05 0)
(9.38671e-05 -9.29646e-05 0)
(4.54373e-05 1.44935e-05 0)
(-0.000168736 0.000161802 0)
(-0.000575606 0.000318247 0)
(-0.00117652 0.000467823 0)
(-0.0019591 0.000602206 0)
(-0.00290312 0.000717336 0)
(-0.00398391 0.000811474 0)
(-0.00517458 0.000884156 0)
(-0.00644744 0.000935659 0)
(-0.00777498 0.000966693 0)
(-0.0091304 0.000978235 0)
(-0.0104881 0.000971427 0)
(-0.0118237 0.00094751 0)
(-0.0131148 0.000907788 0)
(-0.0143403 0.000853602 0)
(-0.0154811 0.000786314 0)
(-0.01652 0.000707306 0)
(-0.0174416 0.000617972 0)
(-0.0182325 0.000519722 0)
(-0.0188812 0.000413988 0)
(-0.0193784 0.000302226 0)
(-0.0197167 0.000185925 0)
(-0.0198909 6.66136e-05 0)
(2.24812e-05 -0.000139237 0)
(-1.00555e-05 -4.57424e-05 0)
(-0.000234046 0.000239547 0)
(-0.000705789 0.000609095 0)
(-0.0014511 0.0010025 0)
(-0.0024715 0.00138343 0)
(-0.0037512 0.00173036 0)
(-0.00526312 0.00203118 0)
(-0.00697318 0.00227954 0)
(-0.00884329 0.00247271 0)
(-0.0108334 0.0026102 0)
(-0.012903 0.00269303 0)
(-0.0150122 0.00272315 0)
(-0.0171225 0.00270319 0)
(-0.0191969 0.0026362 0)
(-0.021201 0.00252551 0)
(-0.0231026 0.00237466 0)
(-0.0248724 0.00218734 0)
(-0.0264835 0.00196732 0)
(-0.0279123 0.00171846 0)
(-0.0291379 0.0014447 0)
(-0.0301428 0.00115007 0)
(-0.0309123 0.000838663 0)
(-0.0314352 0.000514686 0)
(-0.0317035 0.000182447 0)
(-4.90643e-06 -0.000112243 0)
(-0.000153842 0.000164499 0)
(-0.000599964 0.000710131 0)
(-0.00137302 0.00137965 0)
(-0.0024877 0.00208497 0)
(-0.00394138 0.00276874 0)
(-0.00571341 0.00339436 0)
(-0.00777045 0.00393955 0)
(-0.0100709 0.00439158 0)
(-0.0125679 0.00474404 0)
(-0.0152117 0.00499484 0)
(-0.0179517 0.00514482 0)
(-0.0207374 0.00519684 0)
(-0.0235196 0.00515518 0)
(-0.0262513 0.0050251 0)
(-0.0288879 0.00481256 0)
(-0.031388 0.00452402 0)
(-0.0337134 0.00416627 0)
(-0.0358293 0.0037464 0)
(-0.037705 0.00327169 0)
(-0.0393133 0.00274964 0)
(-0.0406313 0.0021879 0)
(-0.04164 0.00159433 0)
(-0.0423248 0.000976966 0)
(-0.0426753 0.000344057 0)
(-3.36834e-05 -3.30974e-06 0)
(-0.000309973 0.000567724 0)
(-0.00100007 0.00145796 0)
(-0.00209754 0.002497 0)
(-0.00359938 0.00357456 0)
(-0.00549491 0.00461475 0)
(-0.00775648 0.00556649 0)
(-0.0103438 0.00639698 0)
(-0.0132081 0.0070863 0)
(-0.0162951 0.00762363 0)
(-0.0195469 0.00800463 0)
(-0.0229045 0.00822954 0)
(-0.0263087 0.00830197 0)
(-0.0297018 0.00822789 0)
(-0.033028 0.00801499 0)
(-0.0362346 0.00767223 0)
(-0.0392724 0.00720948 0)
(-0.0420956 0.00663729 0)
(-0.0446631 0.00596671 0)
(-0.0469379 0.00520924 0)
(-0.0488876 0.00437671 0)
(-0.0504846 0.0034813 0)
(-0.0517064 0.00253549 0)
(-0.0525354 0.00155209 0)
(-0.0529593 0.00054422 0)
(-6.11425e-05 0.000188432 0)
(-0.000465667 0.00117259 0)
(-0.00140628 0.00249679 0)
(-0.00283705 0.00397561 0)
(-0.00473362 0.00548251 0)
(-0.00707431 0.00692651 0)
(-0.00982232 0.00824386 0)
(-0.0129293 0.0093919 0)
(-0.016339 0.0103436 0)
(-0.0199899 0.0110836 0)
(-0.0238169 0.011605 0)
(-0.0277536 0.0119073 0)
(-0.0317335 0.0119948 0)
(-0.0356914 0.0118751 0)
(-0.0395647 0.0115585 0)
(-0.0432935 0.0110575 0)
(-0.046822 0.0103855 0)
(-0.0500986 0.00955749 0)
(-0.0530762 0.00858904 0)
(-0.0557128 0.00749645 0)
(-0.0579716 0.00629662 0)
(-0.0598212 0.00500694 0)
(-0.061236 0.00364531 0)
(-0.062196 0.00223006 0)
(-0.0626871 0.000780032 0)
(-8.64998e-05 0.000459712 0)
(-0.000615518 0.001978 0)
(-0.00180461 0.00382874 0)
(-0.00356864 0.0058191 0)
(-0.00586043 0.00781154 0)
(-0.00864533 0.00970366 0)
(-0.0118757 0.0114214 0)
(-0.0154939 0.0129136 0)
(-0.0194356 0.0141468 0)
(-0.0236318 0.0151014 0)
(-0.0280105 0.0157682 0)
(-0.0324985 0.0161459 0)
(-0.0370227 0.0162396 0)
(-0.0415117 0.0160588 0)
(-0.0458964 0.0156168 0)
(-0.0501114 0.0149293 0)
(-0.0540952 0.0140142 0)
(-0.0577909 0.0128911 0)
(-0.0611468 0.0115806 0)
(-0.0641168 0.0101044 0)
(-0.0666602 0.00848501 0)
(-0.0687424 0.00674561 0)
(-0.0703352 0.00491014 0)
(-0.0714165 0.00300316 0)
(-0.0719709 0.00104986 0)
(-0.000109768 0.000806181 0)
(-0.000757919 0.00297842 0)
(-0.00218937 0.00544969 0)
(-0.00428175 0.00802466 0)
(-0.00696495 0.010559 0)
(-0.0101903 0.0129423 0)
(-0.0138981 0.0150927 0)
(-0.0180204 0.0169521 0)
(-0.0224839 0.0184819 0)
(-0.027212 0.019659 0)
(-0.0321255 0.0204722 0)
(-0.0371448 0.02092 0)
(-0.0421906 0.0210084 0)
(-0.0471857 0.0207491 0)
(-0.0520557 0.0201586 0)
(-0.05673 0.0192565 0)
(-0.0611424 0.0180653 0)
(-0.0652316 0.0166095 0)
(-0.0689421 0.0149152 0)
(-0.0722239 0.01301 0)
(-0.0750334 0.0109225 0)
(-0.0773335 0.00868214 0)
(-0.0790934 0.00631952 0)
(-0.0802896 0.00386588 0)
(-0.0809052 0.0013533 0)
(-0.000131251 0.00122351 0)
(-0.000893078 0.00416681 0)
(-0.00255943 0.00735276 0)
(-0.00497316 0.0105864 0)
(-0.00804187 0.0137199 0)
(-0.0117024 0.0166374 0)
(-0.0158823 0.0192516 0)
(-0.0205023 0.0214996 0)
(-0.0254798 0.0233387 0)
(-0.0307299 0.0247434 0)
(-0.0361661 0.0257014 0)
(-0.0417022 0.0262114 0)
(-0.0472532 0.0262809 0)
(-0.0527364 0.0259243 0)
(-0.0580724 0.0251614 0)
(-0.0631862 0.0240162 0)
(-0.0680073 0.0225162 0)
(-0.072471 0.0206911 0)
(-0.0765182 0.0185732 0)
(-0.080096 0.0161961 0)
(-0.0831582 0.0135948 0)
(-0.0856654 0.0108058 0)
(-0.0875851 0.00786638 0)
(-0.0888921 0.00481505 0)
(-0.0895685 0.00169123 0)
(-0.000151321 0.0017079 0)
(-0.001022 0.00553616 0)
(-0.00291602 0.00953036 0)
(-0.00564381 0.0134974 0)
(-0.00909159 0.017288 0)
(-0.0131817 0.0207834 0)
(-0.0178284 0.0238927 0)
(-0.0229407 0.0265497 0)
(-0.028426 0.0287097 0)
(-0.0341907 0.0303455 0)
(-0.0401407 0.0314448 0)
(-0.0461833 0.0320073 0)
(-0.0522275 0.0320428 0)
(-0.0581855 0.0315687 0)
(-0.0639734 0.0306087 0)
(-0.069512 0.0291917 0)
(-0.0747274 0.0273504 0)
(-0.0795513 0.0251205 0)
(-0.083922 0.0225404 0)
(-0.0877841 0.0196503 0)
(-0.0910893 0.016492 0)
(-0.0937962 0.0131092 0)
(-0.0958708 0.00954631 0)
(-0.0972866 0.00584943 0)
(-0.0980249 0.0020656 0)
(-0.000170343 0.00225632 0)
(-0.00114601 0.00708041 0)
(-0.0032615 0.0119755 0)
(-0.00629685 0.016751 0)
(-0.0101178 0.0212575 0)
(-0.0146322 0.025375 0)
(-0.019741 0.0290108 0)
(-0.0253412 0.0320973 0)
(-0.0313295 0.0345889 0)
(-0.0376031 0.0364583 0)
(-0.0440605 0.0376942 0)
(-0.0506018 0.0382984 0)
(-0.0571304 0.0382834 0)
(-0.0635534 0.0376705 0)
(-0.0697826 0.0364882 0)
(-0.075735 0.0347704 0)
(-0.0813333 0.0325557 0)
(-0.0865068 0.029886 0)
(-0.0911911 0.0268062 0)
(-0.0953289 0.0233636 0)
(-0.09887 0.019607 0)
(-0.101772 0.0155874 0)
(-0.103998 0.0113569 0)
(-0.105522 0.00696924 0)
(-0.106325 0.0024793 0)
(-0.000188644 0.0028665 0)
(-0.00126645 0.00879476 0)
(-0.0035987 0.0146825 0)
(-0.0069365 0.0203415 0)
(-0.0111258 0.0256232 0)
(-0.0160604 0.0304075 0)
(-0.0216276 0.0346017 0)
(-0.0277119 0.0381382 0)
(-0.0341994 0.0409718 0)
(-0.0409778 0.0430767 0)
(-0.0479374 0.0444436 0)
(-0.0549716 0.0450775 0)
(-0.0619777 0.0449946 0)
(-0.068858 0.0442211 0)
(-0.07552 0.0427904 0)
(-0.0818773 0.0407426 0)
(-0.0878498 0.0381224 0)
(-0.0933643 0.0349785 0)
(-0.0983544 0.0313627 0)
(-0.102761 0.0273293 0)
(-0.106533 0.0229348 0)
(-0.109626 0.0182375 0)
(-0.112003 0.0132974 0)
(-0.113636 0.00817587 0)
(-0.114505 0.00293604 0)
(-0.000206512 0.00353692 0)
(-0.00138465 0.0106759 0)
(-0.00393056 0.0176472 0)
(-0.00756736 0.0242648 0)
(-0.0121218 0.0303812 0)
(-0.0174736 0.0358777 0)
(-0.0234965 0.0406624 0)
(-0.0300624 0.0446692 0)
(-0.0370462 0.047855 0)
(-0.044326 0.0501965 0)
(-0.0517837 0.0516881 0)
(-0.0593056 0.0523388 0)
(-0.0667833 0.0521699 0)
(-0.074114 0.051213 0)
(-0.0812014 0.0495077 0)
(-0.0879559 0.0471004 0)
(-0.0942947 0.0440428 0)
(-0.100143 0.0403907 0)
(-0.105432 0.0362032 0)
(-0.110102 0.0315422 0)
(-0.1141 0.0264716 0)
(-0.117381 0.0210575 0)
(-0.119908 0.0153677 0)
(-0.121652 0.00947153 0)
(-0.122591 0.00344015 0)
(-0.00022419 0.00426673 0)
(-0.00150182 0.0127217 0)
(-0.00425988 0.0208671 0)
(-0.00819401 0.0285183 0)
(-0.013112 0.0355293 0)
(-0.0188795 0.0417833 0)
(-0.0253565 0.0471906 0)
(-0.0324022 0.051688 0)
(-0.0398801 0.0552355 0)
(-0.0476583 0.0578143 0)
(-0.0556102 0.0594234 0)
(-0.063615 0.0600772 0)
(-0.0715584 0.0598032 0)
(-0.0793328 0.0586394 0)
(-0.0868383 0.0566325 0)
(-0.093982 0.0538361 0)
(-0.100679 0.0503094 0)
(-0.106853 0.0461156 0)
(-0.112434 0.0413218 0)
(-0.117362 0.0359974 0)
(-0.121582 0.0302142 0)
(-0.125049 0.024046 0)
(-0.127725 0.0175685 0)
(-0.129581 0.0108589 0)
(-0.130595 0.00399652 0)
(-0.000241891 0.00505569 0)
(-0.00161904 0.0149319 0)
(-0.00458929 0.0243416 0)
(-0.00882081 0.0331012 0)
(-0.0141024 0.0410667 0)
(-0.0202855 0.0481234 0)
(-0.0272162 0.0541852 0)
(-0.0347407 0.0591928 0)
(-0.0427107 0.0631111 0)
(-0.0509843 0.0659268 0)
(-0.0594263 0.067645 0)
(-0.0679086 0.0682872 0)
(-0.0763111 0.0678879 0)
(-0.0845216 0.066493 0)
(-0.0924366 0.064157 0)
(-0.0999607 0.0609416 0)
(-0.107007 0.056914 0)
(-0.113498 0.0521458 0)
(-0.119364 0.0467118 0)
(-0.124542 0.0406896 0)
(-0.128979 0.0341589 0)
(-0.132629 0.0272013 0)
(-0.135454 0.0199003 0)
(-0.137424 0.0123409 0)
(-0.138515 0.00461037 0)
(-0.000259798 0.00590412 0)
(-0.00173731 0.0173068 0)
(-0.0049212 0.0280714 0)
(-0.00945181 0.0380145 0)
(-0.0150986 0.046994 0)
(-0.0216985 0.0548984 0)
(-0.0290834 0.0616459 0)
(-0.0370861 0.0671824 0)
(-0.0455464 0.0714793 0)
(-0.0543121 0.0745301 0)
(-0.0632391 0.0763478 0)
(-0.0721923 0.0769621 0)
(-0.0810457 0.0764163 0)
(-0.0896829 0.074765 0)
(-0.0979969 0.0720717 0)
(-0.105891 0.0684071 0)
(-0.113276 0.0638472 0)
(-0.120073 0.0584722 0)
(-0.126213 0.0523654 0)
(-0.131633 0.0456125 0)
(-0.136281 0.0383013 0)
(-0.140109 0.0305211 0)
(-0.143081 0.0223632 0)
(-0.145165 0.0139203 0)
(-0.146339 0.00528707 0)
(-0.000278072 0.00681279 0)
(-0.00185749 0.0198484 0)
(-0.00525782 0.0320588 0)
(-0.0100907 0.0432605 0)
(-0.0161058 0.0533134 0)
(-0.0231249 0.0621097 0)
(-0.0309653 0.069573 0)
(-0.0394458 0.0756558 0)
(-0.0483942 0.0803372 0)
(-0.0576476 0.0836196 0)
(-0.0670532 0.0855253 0)
(-0.0764686 0.0860938 0)
(-0.0857624 0.0853786 0)
(-0.094814 0.0834443 0)
(-0.103514 0.0803647 0)
(-0.111763 0.0762203 0)
(-0.119472 0.0710967 0)
(-0.126562 0.0650833 0)
(-0.132964 0.0582721 0)
(-0.138615 0.0507574 0)
(-0.143464 0.0426349 0)
(-0.147465 0.0340017 0)
(-0.15058 0.0249564 0)
(-0.152779 0.0155991 0)
(-0.154038 0.00603197 0)
(-0.000296859 0.00778295 0)
(-0.00198043 0.0225596 0)
(-0.0056012 0.0363076 0)
(-0.0107411 0.0488431 0)
(-0.0171287 0.0600282 0)
(-0.0245704 0.0697595 0)
(-0.032868 0.077967 0)
(-0.0418259 0.0846114 0)
(-0.0512594 0.0896812 0)
(-0.0609947 0.0931892 0)
(-0.0708702 0.0951689 0)
(-0.0807365 0.0956714 0)
(-0.0904569 0.0947618 0)
(-0.0999072 0.0925165 0)
(-0.108975 0.0890206 0)
(-0.117562 0.0843653 0)
(-0.125576 0.0786468 0)
(-0.132942 0.0719641 0)
(-0.139588 0.0644186 0)
(-0.145456 0.0561129 0)
(-0.150494 0.0471509 0)
(-0.154658 0.0376371 0)
(-0.157911 0.0276774 0)
(-0.160224 0.0173788 0)
(-0.161571 0.00685008 0)
(-0.000316297 0.00881623 0)
(-0.00210688 0.025444 0)
(-0.00595327 0.0408227 0)
(-0.0114061 0.0547675 0)
(-0.0181719 0.0671428 0)
(-0.0260403 0.0778507 0)
(-0.034797 0.0868287 0)
(-0.0442314 0.0940472 0)
(-0.0541456 0.0995061 0)
(-0.064355 0.103231 0)
(-0.0746889 0.105267 0)
(-0.0849911 0.105681 0)
(-0.09512 0.104549 0)
(-0.104948 0.101963 0)
(-0.114363 0.0980191 0)
(-0.123262 0.0928214 0)
(-0.131559 0.0864769 0)
(-0.139176 0.0790951 0)
(-0.146047 0.0707869 0)
(-0.152112 0.0616637 0)
(-0.157323 0.0518369 0)
(-0.161638 0.0414188 0)
(-0.16502 0.0305216 0)
(-0.167442 0.0192589 0)
(-0.168879 0.00774582 0)
(-0.000336522 0.00991464 0)
(-0.00223762 0.0285065 0)
(-0.00631597 0.0456104 0)
(-0.0120889 0.0610399 0)
(-0.0192396 0.0746625 0)
(-0.0275395 0.0863865 0)
(-0.0367571 0.0961583 0)
(-0.0466661 0.10396 0)
(-0.0570549 0.109805 0)
(-0.0677276 0.113733 0)
(-0.0785045 0.115805 0)
(-0.0892231 0.116103 0)
(-0.0997372 0.114719 0)
(-0.109917 0.111759 0)
(-0.119649 0.107335 0)
(-0.128832 0.101562 0)
(-0.137381 0.0945608 0)
(-0.145221 0.0864513 0)
(-0.152287 0.0773541 0)
(-0.158524 0.0673894 0)
(-0.163887 0.0566766 0)
(-0.168336 0.0453345 0)
(-0.171836 0.0334818 0)
(-0.174361 0.0212377 0)
(-0.175888 0.00872262 0)
(-0.000357678 0.0110806 0)
(-0.00237347 0.0317528 0)
(-0.0066913 0.0506779 0)
(-0.012793 0.067668 0)
(-0.0203361 0.0825935 0)
(-0.0290728 0.0953703 0)
(-0.0387528 0.105956 0)
(-0.0491331 0.114345 0)
(-0.0599877 0.120568 0)
(-0.0711093 0.12468 0)
(-0.0823093 0.126763 0)
(-0.093419 0.126913 0)
(-0.104288 0.125243 0)
(-0.114787 0.121875 0)
(-0.1248 0.116934 0)
(-0.134229 0.110554 0)
(-0.142992 0.102865 0)
(-0.151017 0.0940006 0)
(-0.158244 0.0840906 0)
(-0.164622 0.0732642 0)
(-0.17011 0.0616481 0)
(-0.17467 0.0493677 0)
(-0.178272 0.0365471 0)
(-0.180891 0.0233104 0)
(-0.182504 0.00978253 0)
(-0.000379925 0.012317 0)
(-0.0025153 0.0351896 0)
(-0.00708146 0.0560341 0)
(-0.0135218 0.0746602 0)
(-0.021466 0.0909425 0)
(-0.0306449 0.104805 0)
(-0.0407881 0.116219 0)
(-0.0516345 0.125195 0)
(-0.0629431 0.131781 0)
(-0.0744946 0.136054 0)
(-0.0860919 0.138115 0)
(-0.0975605 0.138082 0)
(-0.108748 0.136087 0)
(-0.119522 0.13227 0)
(-0.129771 0.126777 0)
(-0.1394 0.119754 0)
(-0.14833 0.111348 0)
(-0.156494 0.101703 0)
(-0.163839 0.0909595 0)
(-0.170319 0.0792551 0)
(-0.175896 0.0667238 0)
(-0.180539 0.0534967 0)
(-0.184222 0.0397026 0)
(-0.186921 0.0254696 0)
(-0.188616 0.0109258 0)
(-0.00040345 0.0136272 0)
(-0.00266417 0.038825 0)
(-0.00748899 0.061689 0)
(-0.0142794 0.0820266 0)
(-0.0226345 0.0997169 0)
(-0.0322613 0.114695 0)
(-0.0428673 0.126945 0)
(-0.054172 0.1365 0)
(-0.0659185 0.143428 0)
(-0.0778754 0.147829 0)
(-0.0898371 0.149829 0)
(-0.101624 0.149569 0)
(-0.113082 0.147205 0)
(-0.124081 0.142898 0)
(-0.13451 0.136812 0)
(-0.144281 0.129112 0)
(-0.15332 0.119959 0)
(-0.161568 0.10951 0)
(-0.168977 0.0979149 0)
(-0.17551 0.0853211 0)
(-0.181135 0.0718687 0)
(-0.185826 0.0576936 0)
(-0.189562 0.0429285 0)
(-0.192322 0.0277039 0)
(-0.19409 0.0121501 0)
(-0.000428486 0.0150151 0)
(-0.00282133 0.0426681 0)
(-0.00791694 0.0676544 0)
(-0.0150708 0.0897784 0)
(-0.0238476 0.108925 0)
(-0.033928 0.125041 0)
(-0.0449951 0.13813 0)
(-0.0567471 0.148246 0)
(-0.0689104 0.155485 0)
(-0.0812412 0.159973 0)
(-0.0935259 0.161864 0)
(-0.105581 0.161327 0)
(-0.117252 0.158543 0)
(-0.128411 0.153698 0)
(-0.138953 0.146977 0)
(-0.148796 0.138564 0)
(-0.157874 0.128635 0)
(-0.166138 0.11736 0)
(-0.173547 0.104901 0)
(-0.180074 0.0914122 0)
(-0.185694 0.0770397 0)
(-0.19039 0.0619236 0)
(-0.194145 0.046199 0)
(-0.196943 0.0299977 0)
(-0.198771 0.0134505 0)
(-0.000455322 0.0164854 0)
(-0.00298837 0.0467299 0)
(-0.00836909 0.073944 0)
(-0.0159018 0.0979284 0)
(-0.0251127 0.118575 0)
(-0.0356524 0.135845 0)
(-0.0471768 0.149765 0)
(-0.0593611 0.160416 0)
(-0.0719138 0.167922 0)
(-0.0845786 0.172445 0)
(-0.0971347 0.174168 0)
(-0.109396 0.173295 0)
(-0.121209 0.170034 0)
(-0.13245 0.164599 0)
(-0.143023 0.157197 0)
(-0.152855 0.148033 0)
(-0.161889 0.1373 0)
(-0.170086 0.125182 0)
(-0.17742 0.111851 0)
(-0.18387 0.0974678 0)
(-0.189424 0.0821845 0)
(-0.194071 0.0661438 0)
(-0.197803 0.0494818 0)
(-0.20061 0.0323301 0)
(-0.20248 0.0148182 0)
(-0.000484332 0.0180435 0)
(-0.00316728 0.0510235 0)
(-0.00885022 0.0805739 0)
(-0.01678 0.106491 0)
(-0.0264389 0.128676 0)
(-0.0374435 0.147108 0)
(-0.0494189 0.161839 0)
(-0.0620153 0.172984 0)
(-0.0749223 0.180702 0)
(-0.087871 0.185194 0)
(-0.100634 0.186681 0)
(-0.113025 0.185401 0)
(-0.124894 0.181597 0)
(-0.136125 0.175512 0)
(-0.146631 0.167381 0)
(-0.15635 0.157429 0)
(-0.165241 0.145866 0)
(-0.173277 0.13289 0)
(-0.180444 0.118684 0)
(-0.186735 0.103416 0)
(-0.192149 0.0872406 0)
(-0.196685 0.0703025 0)
(-0.200344 0.0527374 0)
(-0.203122 0.0346746 0)
(-0.205012 0.0162404 0)
(-0.000516 0.0196963 0)
(-0.00336063 0.0555644 0)
(-0.00936642 0.0875635 0)
(-0.0177149 0.115485 0)
(-0.0278377 0.139239 0)
(-0.0393123 0.158828 0)
(-0.0517294 0.174338 0)
(-0.0647112 0.185919 0)
(-0.0779276 0.193778 0)
(-0.0910978 0.198157 0)
(-0.10399 0.199323 0)
(-0.116418 0.197554 0)
(-0.128239 0.193133 0)
(-0.139347 0.186335 0)
(-0.149669 0.177422 0)
(-0.159159 0.166642 0)
(-0.16779 0.154226 0)
(-0.175552 0.140384 0)
(-0.182447 0.125309 0)
(-0.188483 0.109173 0)
(-0.193672 0.0921345 0)
(-0.198024 0.0743386 0)
(-0.20155 0.055918 0)
(-0.204255 0.036998 0)
(-0.206136 0.0176994 0)
(-0.00055096 0.0214519 0)
(-0.00357176 0.0603718 0)
(-0.0099255 0.0949357 0)
(-0.0187184 0.124929 0)
(-0.0293236 0.150274 0)
(-0.0412727 0.171003 0)
(-0.0541176 0.187239 0)
(-0.0674501 0.199182 0)
(-0.0809192 0.207089 0)
(-0.0942331 0.211256 0)
(-0.107157 0.212 0)
(-0.11951 0.209649 0)
(-0.131158 0.204526 0)
(-0.142011 0.196942 0)
(-0.152013 0.187192 0)
(-0.161135 0.175548 0)
(-0.169371 0.162259 0)
(-0.176731 0.147547 0)
(-0.183233 0.131615 0)
(-0.188904 0.11464 0)
(-0.193769 0.0967811 0)
(-0.197853 0.0781807 0)
(-0.201178 0.0589675 0)
(-0.203756 0.0392603 0)
(-0.205594 0.0191721 0)
(-0.000590047 0.0233206 0)
(-0.00380499 0.0654691 0)
(-0.0105375 0.102719 0)
(-0.0198061 0.134847 0)
(-0.0309146 0.161794 0)
(-0.0433417 0.183626 0)
(-0.0565949 0.200516 0)
(-0.0702325 0.212721 0)
(-0.0838826 0.220561 0)
(-0.0972438 0.224394 0)
(-0.110082 0.224598 0)
(-0.122223 0.221555 0)
(-0.133551 0.215634 0)
(-0.143993 0.207189 0)
(-0.153514 0.196545 0)
(-0.162109 0.184 0)
(-0.169796 0.169821 0)
(-0.176605 0.154246 0)
(-0.182577 0.13748 0)
(-0.187757 0.119707 0)
(-0.192187 0.101083 0)
(-0.195908 0.081747 0)
(-0.198953 0.0618206 0)
(-0.201345 0.041414 0)
(-0.203097 0.0206297 0)
(-0.000634365 0.025315 0)
(-0.00406598 0.0708853 0)
(-0.0112154 0.110947 0)
(-0.0209973 0.145268 0)
(-0.0326334 0.173812 0)
(-0.0455399 0.196688 0)
(-0.0591737 0.214131 0)
(-0.0730572 0.22647 0)
(-0.0867977 0.2341 0)
(-0.100087 0.237454 0)
(-0.112695 0.236979 0)
(-0.124463 0.233117 0)
(-0.135294 0.226294 0)
(-0.145141 0.216904 0)
(-0.153996 0.205308 0)
(-0.161883 0.191829 0)
(-0.168844 0.176753 0)
(-0.174936 0.160328 0)
(-0.180224 0.142766 0)
(-0.184773 0.124249 0)
(-0.188645 0.104932 0)
(-0.191897 0.0849456 0)
(-0.194574 0.0644036 0)
(-0.196711 0.0434043 0)
(-0.19833 0.0220374 0)
(-0.000685385 0.0274512 0)
(-0.00436211 0.0766566 0)
(-0.011976 0.119661 0)
(-0.0223168 0.156225 0)
(-0.0345078 0.186339 0)
(-0.0478916 0.210171 0)
(-0.0618675 0.228034 0)
(-0.0759194 0.240345 0)
(-0.0896352 0.24759 0)
(-0.102704 0.25029 0)
(-0.114907 0.248974 0)
(-0.126107 0.244153 0)
(-0.136235 0.236311 0)
(-0.145274 0.225889 0)
(-0.153251 0.213285 0)
(-0.160221 0.198846 0)
(-0.166258 0.182873 0)
(-0.171449 0.165625 0)
(-0.175884 0.147316 0)
(-0.179649 0.128127 0)
(-0.182829 0.108206 0)
(-0.185495 0.0876747 0)
(-0.187709 0.0666342 0)
(-0.189516 0.0451694 0)
(-0.190946 0.0233542 0)
(-0.000745078 0.0297498 0)
(-0.00470311 0.0828285 0)
(-0.0128408 0.128915 0)
(-0.0237959 0.167758 0)
(-0.0365722 0.199389 0)
(-0.0504249 0.224053 0)
(-0.0646886 0.242159 0)
(-0.078807 0.254237 0)
(-0.092352 0.260884 0)
(-0.105017 0.262725 0)
(-0.116603 0.260381 0)
(-0.127003 0.254444 0)
(-0.136184 0.245459 0)
(-0.14417 0.233918 0)
(-0.151027 0.220253 0)
(-0.156849 0.204835 0)
(-0.161744 0.18798 0)
(-0.165832 0.169951 0)
(-0.169228 0.150964 0)
(-0.172047 0.131193 0)
(-0.17439 0.110777 0)
(-0.176348 0.0898247 0)
(-0.177996 0.0684233 0)
(-0.179391 0.046641 0)
(-0.180574 0.0245337 0)
(-0.000816114 0.0322369 0)
(-0.00510185 0.0894587 0)
(-0.0138378 0.13877 0)
(-0.0254738 0.179912 0)
(-0.0388675 0.212971 0)
(-0.0531705 0.238294 0)
(-0.0676453 0.256417 0)
(-0.0816956 0.268008 0)
(-0.0948837 0.273799 0)
(-0.106917 0.274539 0)
(-0.117628 0.270958 0)
(-0.126952 0.263732 0)
(-0.134904 0.253476 0)
(-0.141557 0.24073 0)
(-0.147023 0.225961 0)
(-0.15144 0.20956 0)
(-0.154956 0.191854 0)
(-0.157723 0.173107 0)
(-0.159888 0.15353 0)
(-0.161587 0.133288 0)
(-0.162945 0.112506 0)
(-0.164067 0.0912798 0)
(-0.165043 0.0696767 0)
(-0.165942 0.0477463 0)
(-0.166812 0.0255243 0)
(-0.000902154 0.0349466 0)
(-0.00557549 0.0966202 0)
(-0.0150033 0.149306 0)
(-0.0274 0.19274 0)
(-0.0414423 0.22709 0)
(-0.0561601 0.252837 0)
(-0.0707367 0.270685 0)
(-0.08454 0.281475 0)
(-0.0971328 0.286103 0)
(-0.108252 0.285467 0)
(-0.117777 0.280413 0)
(-0.1257 0.271717 0)
(-0.132097 0.260061 0)
(-0.1371 0.246034 0)
(-0.140875 0.230133 0)
(-0.143609 0.212765 0)
(-0.145493 0.194261 0)
(-0.146713 0.174882 0)
(-0.147445 0.154827 0)
(-0.147851 0.134249 0)
(-0.148072 0.113255 0)
(-0.148231 0.0919222 0)
(-0.148429 0.0702977 0)
(-0.148746 0.0484097 0)
(-0.14924 0.0262717 0)
(-0.0010083 0.0379234 0)
(-0.00614721 0.104406 0)
(-0.0163847 0.160619 0)
(-0.0296355 0.2063 0)
(-0.0443522 0.241736 0)
(-0.0594213 0.267595 0)
(-0.073944 0.284798 0)
(-0.0872608 0.294402 0)
(-0.0989532 0.297508 0)
(-0.108808 0.29518 0)
(-0.116772 0.288402 0)
(-0.122913 0.278048 0)
(-0.127383 0.264872 0)
(-0.130383 0.249505 0)
(-0.132142 0.232468 0)
(-0.132899 0.214176 0)
(-0.132888 0.194956 0)
(-0.132331 0.175058 0)
(-0.131432 0.154666 0)
(-0.130372 0.133913 0)
(-0.129312 0.112885 0)
(-0.128386 0.0916365 0)
(-0.127706 0.070192 0)
(-0.12736 0.0485565 0)
(-0.127413 0.0267198 0)
(-0.00114183 0.041226 0)
(-0.00684867 0.112937 0)
(-0.0180441 0.172825 0)
(-0.032256 0.220652 0)
(-0.0476573 0.256881 0)
(-0.0629704 0.282437 0)
(-0.0772155 0.298524 0)
(-0.0897247 0.306481 0)
(-0.100125 0.307646 0)
(-0.108281 0.30328 0)
(-0.114237 0.294514 0)
(-0.118156 0.282323 0)
(-0.12028 0.267526 0)
(-0.120894 0.250789 0)
(-0.120292 0.232646 0)
(-0.118769 0.213509 0)
(-0.116602 0.193691 0)
(-0.114044 0.173423 0)
(-0.111325 0.152867 0)
(-0.108643 0.132127 0)
(-0.10617 0.111268 0)
(-0.104051 0.0903159 0)
(-0.102404 0.0692721 0)
(-0.101323 0.0481165 0)
(-0.100877 0.0268147 0)
(-0.00131337 0.044933 0)
(-0.00772394 0.122367 0)
(-0.0200632 0.186065 0)
(-0.0353529 0.235853 0)
(-0.0514175 0.272457 0)
(-0.0667963 0.297161 0)
(-0.080443 0.31155 0)
(-0.0917132 0.317306 0)
(-0.10032 0.316058 0)
(-0.106247 0.309285 0)
(-0.109663 0.29827 0)
(-0.110857 0.284086 0)
(-0.110177 0.267604 0)
(-0.107996 0.249512 0)
(-0.104681 0.230339 0)
(-0.10058 0.210482 0)
(-0.0960086 0.190229 0)
(-0.0912481 0.169779 0)
(-0.0865441 0.149263 0)
(-0.0821075 0.128757 0)
(-0.0781164 0.108293 0)
(-0.0747191 0.0878704 0)
(-0.0720363 0.0674643 0)
(-0.0701632 0.0470297 0)
(-0.0691714 0.026508 0)
(-0.00153896 0.0491513 0)
(-0.00883552 0.132896 0)
(-0.02255 0.200506 0)
(-0.0390335 0.25194 0)
(-0.0556792 0.288331 0)
(-0.0708355 0.311468 0)
(-0.083423 0.323436 0)
(-0.092876 0.326349 0)
(-0.0990515 0.322169 0)
(-0.102102 0.312614 0)
(-0.102364 0.299115 0)
(-0.100272 0.282829 0)
(-0.0962977 0.264658 0)
(-0.0909074 0.245288 0)
(-0.0845382 0.225226 0)
(-0.0775849 0.204833 0)
(-0.0703945 0.184357 0)
(-0.0632661 0.163957 0)
(-0.0564537 0.143725 0)
(-0.0501704 0.123699 0)
(-0.0445928 0.103879 0)
(-0.0398659 0.0842357 0)
(-0.0361067 0.0647163 0)
(-0.0334075 0.045252 0)
(-0.0318387 0.0257611 0)
(-0.0018438 0.054029 0)
(-0.0102741 0.144783 0)
(-0.0256468 0.216332 0)
(-0.043416 0.268907 0)
(-0.0604507 0.304264 0)
(-0.0749251 0.324908 0)
(-0.0857957 0.33358 0)
(-0.0926613 0.33292 0)
(-0.0956033 0.32527 0)
(-0.0950064 0.312584 0)
(-0.0914156 0.296428 0)
(-0.0854361 0.27801 0)
(-0.0776691 0.258232 0)
(-0.0686731 0.237747 0)
(-0.0589457 0.217013 0)
(-0.0489169 0.196336 0)
(-0.0389508 0.175908 0)
(-0.0293506 0.155837 0)
(-0.0203661 0.136167 0)
(-0.0122013 0.116896 0)
(-0.00502132 0.0979884 0)
(0.0010405 0.0793845 0)
(0.00587765 0.0610063 0)
(0.00940595 0.0427624 0)
(0.0115604 0.024551 0)
(-0.00226902 0.0597764 0)
(-0.0121744 0.158367 0)
(-0.0295394 0.233739 0)
(-0.0486131 0.286654 0)
(-0.0656518 0.31984 0)
(-0.0787235 0.336809 0)
(-0.0869463 0.341153 0)
(-0.0902122 0.336135 0)
(-0.0889319 0.324494 0)
(-0.0837935 0.308409 0)
(-0.0755895 0.289531 0)
(-0.0651098 0.269072 0)
(-0.0530816 0.247887 0)
(-0.0401417 0.226559 0)
(-0.0268285 0.205466 0)
(-0.0135869 0.184835 0)
(-0.000777762 0.164789 0)
(0.01131 0.145372 0)
(0.0224468 0.126575 0)
(0.0324516 0.108354 0)
(0.0411817 0.090638 0)
(0.0485248 0.0733376 0)
(0.0543921 0.0563518 0)
(0.0587134 0.0395703 0)
(0.0614333 0.0228752 0)
(-0.00288458 0.0667012 0)
(-0.0147401 0.174083 0)
(-0.0344618 0.252892 0)
(-0.0546877 0.304902 0)
(-0.0710161 0.334361 0)
(-0.0815746 0.346186 0)
(-0.0858531 0.345036 0)
(-0.0842177 0.334873 0)
(-0.0775345 0.318823 0)
(-0.0668643 0.299219 0)
(-0.053272 0.277728 0)
(-0.0377262 0.25549 0)
(-0.0210577 0.233255 0)
(-0.0039504 0.211488 0)
(0.0130482 0.190454 0)
(0.0295091 0.170283 0)
(0.0451016 0.151011 0)
(0.0595736 0.132613 0)
(0.0727346 0.115026 0)
(0.0844412 0.098162 0)
(0.0945852 0.0819165 0)
(0.103084 0.0661756 0)
(0.109875 0.0508192 0)
(0.114907 0.0357226 0)
(0.118137 0.0207572 0)
(-0.00381332 0.0752688 0)
(-0.0182822 0.192481 0)
(-0.0406816 0.273841 0)
(-0.0615483 0.323044 0)
(-0.0759056 0.346688 0)
(-0.0822774 0.351608 0)
(-0.0808521 0.343744 0)
(-0.0727031 0.327769 0)
(-0.059281 0.307104 0)
(-0.0420653 0.284118 0)
(-0.022384 0.260373 0)
(-0.00134589 0.236844 0)
(0.020166 0.214103 0)
(0.0414722 0.192448 0)
(0.0620635 0.172004 0)
(0.0815667 0.152781 0)
(0.0997136 0.134725 0)
(0.116315 0.11774 0)
(0.131238 0.10171 0)
(0.144392 0.0865057 0)
(0.155715 0.0719968 0)
(0.165163 0.0580497 0)
(0.172704 0.0445315 0)
(0.178311 0.0313097 0)
(0.181959 0.0182513 0)
(-0.00527455 0.0862078 0)
(-0.0232686 0.214212 0)
(-0.0484255 0.296336 0)
(-0.0687116 0.339872 0)
(-0.0789626 0.355002 0)
(-0.0787064 0.351058 0)
(-0.0692905 0.335381 0)
(-0.0527512 0.313237 0)
(-0.0312144 0.288138 0)
(-0.00656258 0.26229 0)
(0.0196831 0.236987 0)
(0.0463624 0.212927 0)
(0.072626 0.19043 0)
(0.0978744 0.169588 0)
(0.121697 0.15036 0)
(0.143824 0.132634 0)
(0.164085 0.116265 0)
(0.182376 0.101091 0)
(0.198644 0.0869513 0)
(0.212861 0.0736872 0)
(0.22502 0.0611479 0)
(0.235121 0.0491895 0)
(0.243167 0.0376745 0)
(0.249158 0.0264698 0)
(0.25309 0.0154452 0)
(-0.00765442 0.100683 0)
(-0.0303552 0.23992 0)
(-0.057632 0.319432 0)
(-0.0747841 0.353153 0)
(-0.0774728 0.3565 0)
(-0.0672049 0.3418 0)
(-0.0470374 0.317667 0)
(-0.0201607 0.289604 0)
(0.0106533 0.260858 0)
(0.0432524 0.233185 0)
(0.0760839 0.207428 0)
(0.108086 0.183891 0)
(0.138568 0.162587 0)
(0.167103 0.143377 0)
(0.193449 0.126056 0)
(0.217484 0.110397 0)
(0.239168 0.096177 0)
(0.258505 0.0831848 0)
(0.275529 0.0712283 0)
(0.290286 0.0601327 0)
(0.302825 0.04974 0)
(0.313194 0.039906 0)
(0.32143 0.0304973 0)
(0.327561 0.021389 0)
(0.331604 0.0124607 0)
(-0.0115741 0.120523 0)
(-0.0402533 0.269849 0)
(-0.0672417 0.340744 0)
(-0.0763682 0.358993 0)
(-0.0662445 0.347101 0)
(-0.0416723 0.32041 0)
(-0.00786109 0.288173 0)
(0.0309055 0.255442 0)
(0.0714827 0.224666 0)
(0.111762 0.196829 0)
(0.150432 0.172141 0)
(0.186741 0.150441 0)
(0.220302 0.131417 0)
(0.25096 0.114713 0)
(0.278702 0.099985 0)
(0.303593 0.086922 0)
(0.325738 0.0752508 0)
(0.34526 0.064736 0)
(0.362282 0.0551754 0)
(0.376921 0.0463951 0)
(0.38928 0.0382438 0)
(0.39945 0.0305885 0)
(0.407499 0.0233097 0)
(0.413481 0.0162979 0)
(0.417429 0.00944997 0)
(-0.0177485 0.148551 0)
(-0.0528822 0.30281 0)
(-0.0732996 0.355066 0)
(-0.0658504 0.351044 0)
(-0.0357692 0.321363 0)
(0.00765565 0.28317 0)
(0.0572116 0.244932 0)
(0.108131 0.210185 0)
(0.157547 0.179979 0)
(0.203917 0.15424 0)
(0.246538 0.132466 0)
(0.285196 0.114045 0)
(0.319947 0.0983908 0)
(0.350978 0.0849977 0)
(0.378537 0.0734419 0)
(0.402882 0.0633778 0)
(0.424263 0.0545243 0)
(0.442908 0.046653 0)
(0.459018 0.0395771 0)
(0.472768 0.0331419 0)
(0.484304 0.0272173 0)
(0.493746 0.0216923 0)
(0.501187 0.0164696 0)
(0.506699 0.0114618 0)
(0.510327 0.00658792 0)
(-0.0258806 0.189372 0)
(-0.0643844 0.333673 0)
(-0.064398 0.351754 0)
(-0.0272765 0.319466 0)
(0.0304601 0.272791 0)
(0.0955005 0.227021 0)
(0.160219 0.18748 0)
(0.220816 0.155019 0)
(0.275747 0.128863 0)
(0.324683 0.107851 0)
(0.367876 0.0908854 0)
(0.405813 0.0770577 0)
(0.439046 0.0656576 0)
(0.468108 0.0561418 0)
(0.493477 0.0480971 0)
(0.515571 0.0412089 0)
(0.534746 0.0352356 0)
(0.551301 0.0299892 0)
(0.565486 0.0253216 0)
(0.577504 0.0211141 0)
(0.587525 0.0172698 0)
(0.595681 0.0137076 0)
(0.602077 0.0103581 0)
(0.606789 0.00715981 0)
(0.60987 0.00405677 0)
(-0.0296292 0.246724 0)
(-0.0583987 0.346547 0)
(-0.0119574 0.311495 0)
(0.0703988 0.251533 0)
(0.159094 0.196214 0)
(0.242193 0.152097 0)
(0.31563 0.118864 0)
(0.378759 0.0942139 0)
(0.432446 0.0758285 0)
(0.478009 0.061912 0)
(0.516747 0.0511826 0)
(0.549791 0.0427479 0)
(0.578073 0.0359895 0)
(0.602347 0.0304751 0)
(0.623217 0.0258987 0)
(0.641165 0.0220392 0)
(0.656579 0.0187344 0)
(0.669769 0.0158626 0)
(0.680982 0.0133308 0)
(0.690419 0.0110661 0)
(0.698239 0.00901052 0)
(0.704567 0.00711629 0)
(0.709498 0.00534325 0)
(0.713104 0.00365641 0)