/*--------------------------------*- C++ -*----------------------------------*\
| =========                 |                                                 |
| \\      /  F ield         | OpenFOAM: The Open Source CFD Toolbox           |
|  \\    /   O peration     | Version:  v2012                                 |
|   \\  /    A nd           | Website:  www.openfoam.com                      |
|    \\/     M anipulation  |                                                 |
\*---------------------------------------------------------------------------*/
FoamFile
{
    version     2.0;
    format      ascii;
    class       volScalarField;
    location    "0.45";
    object      p;
}
// * * * * * * * * * * * * * * * * * * * * * * * * * * * * * * * * * * * * * //

dimensions      [0 2 -2 0 0 0 0];


internalField   nonuniform List<scalar> 
1250
(
0.0372151
0.0438314
0.0503298
0.0566204
0.0626147
0.0682268
0.0733747
0.0779821
0.0819796
0.085307
0.0879144
0.0897649
0.0908363
0.0911231
0.0906398
0.0894227
0.0875337
0.0850639
0.0821381
0.0789214
0.0756248
0.0725119
0.0699103
0.0682267
0.0677189
0.0369159
0.0428937
0.0487644
0.0544473
0.059863
0.0649351
0.069591
0.0737635
0.0773923
0.0804257
0.0828219
0.0845513
0.0855978
0.0859612
0.0856591
0.0847287
0.0832301
0.0812478
0.0788945
0.076313
0.0736789
0.0711995
0.0691141
0.067715
0.0672114
0.0366769
0.0421786
0.0475823
0.0528139
0.0578013
0.0624748
0.0667684
0.0706216
0.0739803
0.0767985
0.0790398
0.0806789
0.0817031
0.0821145
0.0819308
0.0811878
0.0799407
0.0782656
0.0762612
0.0740492
0.0717744
0.0696025
0.0677179
0.0663129
0.0655314
0.0364729
0.0416143
0.0466656
0.0515579
0.0562242
0.0605998
0.0646238
0.0682399
0.0713985
0.0740571
0.0761825
0.0777515
0.078753
0.0791887
0.079075
0.0784439
0.0773442
0.0758423
0.0740227
0.0719873
0.0698543
0.0677592
0.0658469
0.0642117
0.0629152
0.0362737
0.0411174
0.0458781
0.0504917
0.0548952
0.0590278
0.0628324
0.0662563
0.0692526
0.0717816
0.0738117
0.0753208
0.0762977
0.0767429
0.0766701
0.0761064
0.0750934
0.0736874
0.0719589
0.0699913
0.0678789
0.0657321
0.0636643
0.0616722
0.059729
0.036071
0.0406777
0.0452083
0.049602
0.0537991
0.0577419
0.061376
0.0646512
0.0675224
0.0699512
0.0719067
0.0733669
0.0743195
0.0747627
0.0747064
0.0741726
0.0731952
0.0718207
0.0701066
0.0681195
0.0659334
0.0636388
0.0613247
0.0588969
0.0562493
0.0358557
0.0402861
0.0446465
0.0488788
0.0529259
0.056732
0.0602447
0.0634148
0.0661985
0.0685575
0.0704608
0.0718851
0.0728163
0.0732498
0.0731911
0.0726564
0.0716725
0.0702762
0.0685136
0.0664369
0.0641033
0.0615884
0.0589637
0.0560543
0.0526861
0.0356162
0.0399276
0.0441749
0.0483018
0.0522525
0.0559729
0.0594112
0.0625189
0.065252
0.0675718
0.069446
0.0708498
0.0717662
0.072187
0.0721133
0.0715555
0.0705333
0.0690749
0.0672163
0.0649976
0.0624626
0.0596764
0.0566986
0.0532838
0.0491996
0.0353399
0.0395874
0.0437764
0.0478515
0.051758
0.0554421
0.0588521
0.0619394
0.0646591
0.0669713
0.0688417
0.070243
0.0711549
0.0715654
0.0714708
0.0708756
0.069793
0.0682435
0.0662543
0.0638557
0.0610809
0.0579882
0.0546301
0.0506987
0.0459113
0.0350133
0.0392506
0.0434347
0.0475108
0.0514242
0.055121
0.058549
0.0616585
0.0644032
0.066741
0.0686352
0.0700554
0.0709776
0.0713854
0.0712701
0.0706308
0.0694743
0.0678142
0.0656705
0.0630654
0.0600241
0.0566009
0.0528448
0.048392
0.0429151
0.0346217
0.0389017
0.0431338
0.0472631
0.0512345
0.0549933
0.0584862
0.0616616
0.0644712
0.0668704
0.0688192
0.0702835
0.0712352
0.0716532
0.0715239
0.0708407
0.0696045
0.067823
0.0655097
0.0626805
0.0593543
0.0555843
0.0514184
0.0464413
0.0402851
0.0341495
0.0385247
0.0428574
0.0470923
0.0511733
0.0550443
0.0586501
0.0619371
0.0648541
0.0673531
0.0693908
0.0709285
0.0719338
0.0723805
0.0722497
0.0715295
0.0702149
0.0683083
0.0658177
0.0627538
0.0591312
0.055003
0.0504185
0.044914
0.0380829
0.0335794
0.0381024
0.0425889
0.0469824
0.0512255
0.0552603
0.0590291
0.0624756
0.0655451
0.0681861
0.0703508
0.0719959
0.0730839
0.0735834
0.0734697
0.0727255
0.0713405
0.0693117
0.0666425
0.0633391
0.0594129
0.0549188
0.0499082
0.0438711
0.0363629
0.0328927
0.0376169
0.042311
0.0469173
0.0513766
0.0556285
0.0596127
0.0632694
0.0665402
0.069369
0.0717033
0.0734947
0.0746999
0.0752819
0.0752101
0.0744614
0.07302
0.0708779
0.0680342
0.0644914
0.0602583
0.0553923
0.0499486
0.0433705
0.0351761
0.0320695
0.0370489
0.0420058
0.0468806
0.0516118
0.0561367
0.0603914
0.0643123
0.0678368
0.0709038
0.0734553
0.075437
0.0767998
0.0775
0.0775011
0.0767736
0.075296
0.0730553
0.0700463
0.0662683
0.0617278
0.0564856
0.0506011
0.0434704
0.0345735
0.0310882
0.0363782
0.0416543
0.046855
0.0519163
0.0567725
0.061356
0.0655991
0.069434
0.0727943
0.0756159
0.077838
0.0794047
0.0802655
0.0803768
0.0797026
0.0782153
0.0758964
0.0727365
0.0687313
0.0638856
0.0582637
0.0519298
0.0442314
0.0346088
0.0299259
0.0355832
0.0412366
0.0468227
0.0522748
0.0575236
0.0624978
0.0671249
0.0713318
0.0750458
0.0781962
0.0807152
0.0825389
0.0836095
0.0838755
0.0832936
0.0818294
0.0794587
0.0761671
0.0719469
0.0668006
0.0607965
0.0540039
0.0457191
0.0353411
0.0285588
0.0346414
0.0407322
0.0467653
0.0526713
0.0583774
0.0638081
0.0688855
0.0735309
0.0776648
0.0812092
0.0840881
0.0862295
0.0875665
0.0880393
0.0875962
0.0861953
0.0838054
0.080407
0.0759879
0.0705485
0.0641607
0.0568991
0.0480058
0.0368364
0.0269624
0.0335298
0.0401196
0.0466636
0.0530895
0.0593209
0.0652776
0.0708766
0.0760325
0.0806589
0.0846692
0.0879789
0.0905063
0.0921749
0.092915
0.0926655
0.0913756
0.0890064
0.0855319
0.0809351
0.075213
0.0684415
0.0607
0.0511731
0.0391699
0.0251118
0.0322251
0.0393772
0.0464981
0.0535126
0.0603407
0.0668974
0.073094
0.0788384
0.0840362
0.088592
0.0924113
0.0954019
0.0974764
0.0985537
0.0985618
0.0974396
0.095139
0.0916264
0.0868783
0.0808879
0.0737343
0.065502
0.0553133
0.042428
0.0229829
0.0307041
0.0384835
0.0462493
0.0539238
0.0614231
0.0686579
0.0755334
0.0819503
0.0878056
0.0929944
0.0974112
0.100952
0.103517
0.105012
0.105352
0.104464
0.102289
0.0987845
0.0939182
0.0876786
0.0801473
0.0714133
0.060532
0.0467103
0.0205531
0.028945
0.0374178
0.0458983
0.0543063
0.0625548
0.0705498
0.0781906
0.0853701
0.0919766
0.0978945
0.103006
0.107195
0.110345
0.11235
0.113109
0.112534
0.110553
0.107112
0.102168
0.0957044
0.0878031
0.0785575
0.0669503
0.0521319
0.0178021
0.0269282
0.0361612
0.0454273
0.0546445
0.0637228
0.072564
0.0810612
0.0891
0.096559
0.103311
0.109226
0.114171
0.118016
0.120636
0.121914
0.121744
0.120038
0.116727
0.111757
0.105101
0.0968415
0.0870759
0.0747074
0.0588255
0.0147141
0.0246374
0.0346976
0.0448208
0.0549241
0.0649152
0.0746919
0.0841417
0.0931425
0.101563
0.109264
0.116101
0.121925
0.126587
0.129943
0.131855
0.132197
0.130862
0.127762
0.122829
0.116021
0.107422
0.0971309
0.0839635
0.0669446
0.0112788
0.0220614
0.033015
0.0440667
0.0551336
0.0661219
0.0769261
0.0874288
0.0975003
0.106999
0.115774
0.123663
0.130502
0.13612
0.14035
0.14303
0.144011
0.14316
0.140369
0.135548
0.128642
0.119729
0.108909
0.0949037
0.0766668
0.00749339
0.0191955
0.031107
0.0431572
0.0552646
0.067335
0.0792609
0.0909203
0.102177
0.112878
0.122861
0.131947
0.139951
0.14668
0.151941
0.155544
0.157311
0.15708
0.154715
0.150101
0.143163
0.133973
0.122626
0.107742
0.0881975
0.00336497
0.0160437
0.0289746
0.0420909
0.0553139
0.0685506
0.0816928
0.0946152
0.107175
0.119212
0.130547
0.140987
0.150323
0.158338
0.164809
0.169514
0.172239
0.172788
0.170991
0.166702
0.159817
0.150396
0.138533
0.122727
0.101775
-0.00108773
0.0126203
0.0266277
0.0408735
0.0552838
0.0697688
0.0842211
0.0985141
0.1125
0.12601
0.138852
0.150815
0.161668
0.171165
0.17905
0.185063
0.18895
0.190471
0.189414
0.185593
0.178867
0.169282
0.156918
0.140147
0.117677
-0.00583195
0.00895206
0.0240869
0.0395199
0.055184
0.0709949
0.0868486
0.102619
0.118156
0.133282
0.147795
0.161465
0.174038
0.185236
0.194767
0.202327
0.207613
0.210335
0.210227
0.20705
0.200621
0.190957
0.178122
0.160342
0.136226
-0.010819
0.00507979
0.0213852
0.038055
0.0550321
0.0722402
0.0895817
0.106934
0.124146
0.141036
0.157392
0.172966
0.18748
0.200624
0.212064
0.221447
0.228413
0.232609
0.233704
0.231393
0.225434
0.215804
0.202544
0.18371
0.157804
-0.0159826
0.00105997
0.0185686
0.0365149
0.0548542
0.073522
0.0924302
0.111463
0.130472
0.149276
0.167653
0.185341
0.202038
0.217399
0.231047
0.242572
0.251548
0.257547
0.260155
0.258987
0.253718
0.244275
0.230656
0.210723
0.182858
-0.0212377
-0.0030347
0.0156974
0.0349467
0.0546851
0.0748631
0.0954064
0.11621
0.137135
0.158
0.178581
0.198604
0.217744
0.235625
0.251818
0.265854
0.27723
0.285426
0.28993
0.290249
0.285957
0.276901
0.263021
0.241948
0.211924
-0.026481
-0.0071154
0.0128449
0.0334085
0.054567
0.0762908
0.0985236
0.121177
0.144125
0.167195
0.190164
0.212753
0.234617
0.255347
0.274468
0.291441
0.305675
0.316547
0.323418
0.325662
0.322716
0.314318
0.300318
0.278067
0.245647
-0.0315915
-0.0110787
0.0100967
0.0319669
0.054548
0.0778343
0.101793
0.126359
0.151424
0.176834
0.202374
0.227764
0.252648
0.276591
0.299067
0.319468
0.337106
0.35123
0.361055
0.36578
0.364662
0.357287
0.343371
0.319915
0.28481
-0.0364339
-0.0148097
0.00754636
0.0306941
0.0546776
0.0795207
0.10522
0.131739
0.158999
0.186868
0.215151
0.24358
0.271796
0.299342
0.325652
0.350046
0.371729
0.389809
0.403316
0.411235
0.412584
0.406731
0.393196
0.36853
0.330382
-0.0408636
-0.0181869
0.00529137
0.0296622
0.0550023
0.0813697
0.108797
0.137284
0.166789
0.197215
0.2284
0.260098
0.291963
0.323532
0.354207
0.383239
0.409725
0.432612
0.450715
0.462747
0.467413
0.463775
0.451057
0.425215
0.38358
-0.044733
-0.0210894
0.0034254
0.0289366
0.0555578
0.0833859
0.112496
0.142933
0.174701
0.207753
0.241973
0.277155
0.312986
0.349015
0.384631
0.419032
0.451211
0.47994
0.503787
0.521126
0.530252
0.5298
0.518551
0.491641
0.445959
-0.0479012
-0.0234057
0.00202966
0.028567
0.05636
0.0855497
0.116259
0.148588
0.182597
0.218302
0.25565
0.294502
0.334598
0.375532
0.416707
0.457296
0.496202
0.532025
0.563055
0.587259
0.602399
0.606514
0.597725
0.569998
0.51956
-0.0502452
-0.0250447
0.0011622
0.0285767
0.0573953
0.087807
0.119989
0.154102
0.190278
0.228608
0.269127
0.311784
0.356409
0.402677
0.450051
0.497722
0.544541
0.588961
0.628976
0.662082
0.685363
0.696036
0.691236
0.663208
0.607132
-0.0516719
-0.0259478
0.000846378
0.0289518
0.0586091
0.0900581
0.123535
0.159269
0.197473
0.238333
0.281989
0.328512
0.377862
0.429846
0.484047
0.539743
0.595808
0.650598
0.701841
0.746509
0.780855
0.80099
0.802582
0.77528
0.712498
-0.0521317
-0.0261012
0.00105941
0.0296301
0.0598958
0.0921483
0.126686
0.163811
0.203828
0.247032
0.293693
0.344036
0.398198
0.456182
0.517772
0.582436
0.649182
0.71639
0.781603
0.841286
0.890726
0.924588
0.936411
0.911845
0.841206
-0.0516299
-0.0255461
0.00172268
0.0304926
0.061091
0.0938601
0.12916
0.167372
0.208896
0.25415
0.303555
0.357522
0.41642
0.480518
0.549909
0.624387
0.703268
0.785156
0.867613
0.946725
1.01678
1.07067
1.09892
1.08102
1.00167
-0.0502365
-0.0243869
0.00269572
0.0313593
0.0619687
0.0949128
0.130611
0.169521
0.212141
0.259019
0.310744
0.367945
0.431268
0.501333
0.578661
0.66355
0.755872
0.854773
0.958205
1.06224
1.16037
1.24355
1.29831
1.29476
1.20737
-0.0480902
-0.0227937
0.00377539
0.0319895
0.0622439
0.0949666
0.130629
0.169758
0.212948
0.260874
0.3143
0.374094
0.441217
0.516717
0.601672
0.697093
0.803727
0.921723
1.05005
1.18553
1.32154
1.44747
1.54511
1.57103
1.48128
-0.0453965
-0.0209985
0.00470057
0.0320885
0.0615806
0.0936328
0.128757
0.167535
0.210644
0.258874
0.313157
0.374595
0.44449
0.524366
0.615969
0.721234
0.842152
0.980483
1.13715
1.31103
1.49708
1.68469
1.85151
1.93685
1.86473
-0.0424162
-0.0192807
0.00517135
0.031331
0.0596208
0.0905096
0.124531
0.162305
0.204563
0.252185
0.306241
0.36804
0.439203
0.521732
0.6181
0.731322
0.864984
1.02314
1.2099
1.42827
1.67794
1.95233
2.22902
2.4309
2.43194
-0.03945
-0.0179309
0.00490513
0.0294394
0.0560864
0.0853104
0.117645
0.15372
0.19429
0.24028
0.292844
0.353436
0.423921
0.50671
0.604951
0.722774
0.865576
1.04032
1.25569
1.52173
1.84815
2.23977
2.68371
3.10337
3.31485
-0.0368168
-0.0172476
0.00362229
0.0261506
0.0507277
0.0777936
0.107857
0.141524
0.17953
0.222788
0.272456
0.330028
0.397472
0.477423
0.573484
0.690657
0.835998
1.01953
1.25553
1.56431
1.97281
2.50869
3.1901
4.01478
4.80843
-0.0347768
-0.0176977
0.000643448
0.0205623
0.0424033
0.0665551
0.093468
0.123678
0.157841
0.196771
0.241512
0.293422
0.354316
0.426674
0.513984
0.621291
0.756117
0.930002
1.16132
1.48062
1.9368
2.59636
3.5721
5.1944
7.6784
-0.0334322
-0.0195417
-0.00445161
0.0120903
0.0303583
0.0506597
0.0733483
0.098842
0.127646
0.160386
0.197851
0.241065
0.291379
0.350635
0.421417
0.507501
0.614664
0.752279
0.936874
1.20041
1.60434
2.26055
3.4718
6.35801
12.4032
)
;

boundaryField
{
    movingWall
    {
        type            zeroGradient;
    }
    fixedWalls
    {
        type            zeroGradient;
    }
    frontAndBack
    {
        type            empty;
    }
    procBoundary1to0
    {
        type            processor;
        value           nonuniform List<scalar> 
50
(
0.030571
0.0309121
0.0311515
0.0313102
0.0314117
0.0314491
0.0314137
0.0312968
0.0310885
0.0307766
0.0303476
0.0297861
0.0290747
0.0281946
0.0271248
0.0258431
0.0243254
0.0225466
0.020481
0.0181026
0.0153864
0.0123089
0.00884996
0.00499384
0.000731315
-0.00393841
-0.00900546
-0.0144469
-0.0202243
-0.0262816
-0.0325432
-0.0389128
-0.0452729
-0.051486
-0.0573974
-0.0628395
-0.0676388
-0.0716254
-0.074644
-0.0765672
-0.0773092
-0.0768389
-0.0751912
-0.0724736
-0.0688647
-0.0646078
-0.0600142
-0.0554244
-0.0508926
-0.046363
)
;
    }
}


// ************************************************************************* //
