/*--------------------------------*- C++ -*----------------------------------*\
| =========                 |                                                 |
| \\      /  F ield         | OpenFOAM: The Open Source CFD Toolbox           |
|  \\    /   O peration     | Version:  v2012                                 |
|   \\  /    A nd           | Website:  www.openfoam.com                      |
|    \\/     M anipulation  |                                                 |
\*---------------------------------------------------------------------------*/
FoamFile
{
    version     2.0;
    format      ascii;
    class       volVectorField;
    location    "0.45";
    object      U;
}
// * * * * * * * * * * * * * * * * * * * * * * * * * * * * * * * * * * * * * //

dimensions      [0 1 -1 0 0 0 0];


internalField   nonuniform List<vector> 
1250
(
(-0.00705749 -8.10227e-06 0)
(-0.00699918 -2.69491e-05 0)
(-0.00687966 -4.55398e-05 0)
(-0.0067003 -6.36111e-05 0)
(-0.0064633 -8.08909e-05 0)
(-0.00617181 -9.71e-05 0)
(-0.00582984 -0.000111954 0)
(-0.00544236 -0.000125163 0)
(-0.00501523 -0.000136441 0)
(-0.00455521 -0.0001455 0)
(-0.00406994 -0.000152062 0)
(-0.00356787 -0.000155857 0)
(-0.00305824 -0.000156632 0)
(-0.00255096 -0.000154151 0)
(-0.00205655 -0.000148201 0)
(-0.00158596 -0.000138597 0)
(-0.00115048 -0.000125193 0)
(-0.000761464 -0.000107895 0)
(-0.000430037 -8.66993e-05 0)
(-0.000166606 -6.17891e-05 0)
(1.9968e-05 -3.37532e-05 0)
(0.000123748 -4.07398e-06 0)
(0.000144918 2.37945e-05 0)
(9.98296e-05 4.17792e-05 0)
(3.21285e-05 3.2061e-05 0)
(-0.0199081 -5.42029e-05 0)
(-0.0197473 -0.000174846 0)
(-0.01942 -0.000293651 0)
(-0.0189301 -0.00040891 0)
(-0.0182838 -0.000518879 0)
(-0.0174899 -0.000621784 0)
(-0.0165596 -0.000715833 0)
(-0.0155063 -0.000799238 0)
(-0.0143461 -0.000870229 0)
(-0.0130974 -0.000927086 0)
(-0.0117808 -0.000968162 0)
(-0.010419 -0.000991917 0)
(-0.00903655 -0.000996957 0)
(-0.00765967 -0.000982074 0)
(-0.00631584 -0.000946296 0)
(-0.00503338 -0.000888962 0)
(-0.00384086 -0.000809815 0)
(-0.00276634 -0.000709167 0)
(-0.00183635 -0.00058817 0)
(-0.00107429 -0.000449327 0)
(-0.000498244 -0.000297481 0)
(-0.000117596 -0.000141654 0)
(7.24895e-05 1.65602e-06 0)
(0.000102965 0.000101873 0)
(4.2163e-05 9.9841e-05 0)
(-0.0317287 -0.000153812 0)
(-0.0314774 -0.000489372 0)
(-0.0309683 -0.000819574 0)
(-0.0302073 -0.00113966 0)
(-0.0292044 -0.00144478 0)
(-0.0279732 -0.00173003 0)
(-0.0265309 -0.0019905 0)
(-0.0248986 -0.00222129 0)
(-0.0231009 -0.00241761 0)
(-0.0211662 -0.00257484 0)
(-0.0191258 -0.00268861 0)
(-0.0170145 -0.0027549 0)
(-0.0148694 -0.00277015 0)
(-0.0127301 -0.00273143 0)
(-0.0106377 -0.00263657 0)
(-0.00863424 -0.00248439 0)
(-0.00676164 -0.00227506 0)
(-0.00506045 -0.00201048 0)
(-0.00356829 -0.00169509 0)
(-0.00231753 -0.00133703 0)
(-0.00133241 -0.000950204 0)
(-0.00062485 -0.000557645 0)
(-0.000188775 -0.000196618 0)
(7.10517e-06 7.28361e-05 0)
(2.53656e-05 0.000146521 0)
(-0.0427074 -0.000296289 0)
(-0.0423762 -0.000935056 0)
(-0.0417068 -0.00156337 0)
(-0.0407073 -0.00217219 0)
(-0.0393906 -0.00275234 0)
(-0.0377745 -0.00329455 0)
(-0.0358816 -0.00378956 0)
(-0.0337392 -0.00422823 0)
(-0.0313794 -0.00460163 0)
(-0.0288386 -0.00490118 0)
(-0.0261576 -0.00511887 0)
(-0.0233808 -0.00524741 0)
(-0.0205559 -0.00528048 0)
(-0.0177333 -0.00521303 0)
(-0.0149652 -0.00504158 0)
(-0.0123047 -0.00476469 0)
(-0.00980419 -0.00438352 0)
(-0.00751411 -0.00390271 0)
(-0.00548079 -0.00333155 0)
(-0.00374397 -0.0026859 0)
(-0.00233374 -0.00199104 0)
(-0.00126627 -0.00128611 0)
(-0.000538813 -0.000630045 0)
(-0.000129793 -0.000110759 0)
(-5.90456e-07 0.000130299 0)
(-0.052998 -0.000475209 0)
(-0.0525961 -0.00149186 0)
(-0.0517847 -0.00249165 0)
(-0.0505734 -0.00346026 0)
(-0.048978 -0.00438318 0)
(-0.0470195 -0.00524581 0)
(-0.0447251 -0.00603361 0)
(-0.0421275 -0.00673223 0)
(-0.0392648 -0.00732774 0)
(-0.0361805 -0.00780686 0)
(-0.0329228 -0.00815721 0)
(-0.0295444 -0.00836768 0)
(-0.0261018 -0.00842878 0)
(-0.0226544 -0.0083331 0)
(-0.0192634 -0.00807586 0)
(-0.015991 -0.00765558 0)
(-0.0128984 -0.00707495 0)
(-0.0100444 -0.00634208 0)
(-0.00748304 -0.00547205 0)
(-0.00526106 -0.00448937 0)
(-0.0034153 -0.00343128 0)
(-0.00196849 -0.00235267 0)
(-0.000925186 -0.00133205 0)
(-0.000280052 -0.0004802 0)
(-2.81851e-05 3.5494e-05 0)
(-0.0627328 -0.000686306 0)
(-0.0622685 -0.0021484 0)
(-0.0613304 -0.00358613 0)
(-0.0599296 -0.00497905 0)
(-0.0580838 -0.00630648 0)
(-0.0558171 -0.00754765 0)
(-0.0531604 -0.00868191 0)
(-0.0501506 -0.00968896 0)
(-0.0468312 -0.0105491 0)
(-0.0432513 -0.0112438 0)
(-0.0394656 -0.0117555 0)
(-0.0355336 -0.012069 0)
(-0.031519 -0.0121713 0)
(-0.027489 -0.0120522 0)
(-0.0235126 -0.0117057 0)
(-0.0196596 -0.0111305 0)
(-0.0159993 -0.0103308 0)
(-0.0125978 -0.00931877 0)
(-0.00951688 -0.00811549 0)
(-0.00681074 -0.0067542 0)
(-0.00452424 -0.00528368 0)
(-0.00268887 -0.0037731 0)
(-0.00131945 -0.00231744 0)
(-0.000430605 -0.00104497 0)
(-5.46075e-05 -0.000139217 0)
(-0.0720249 -0.000925062 0)
(-0.0715057 -0.0028941 0)
(-0.070454 -0.00483042 0)
(-0.0688819 -0.00670671 0)
(-0.0668089 -0.00849542 0)
(-0.0642614 -0.0101689 0)
(-0.0612732 -0.0116998 0)
(-0.0578851 -0.0130611 0)
(-0.0541445 -0.0142268 0)
(-0.0501055 -0.0151722 0)
(-0.0458281 -0.0158747 0)
(-0.0413777 -0.0163139 0)
(-0.0368244 -0.0164731 0)
(-0.0322417 -0.0163394 0)
(-0.0277057 -0.0159051 0)
(-0.0232934 -0.0151688 0)
(-0.0190813 -0.0141367 0)
(-0.0151431 -0.0128244 0)
(-0.0115483 -0.0112591 0)
(-0.0083595 -0.00948214 0)
(-0.0056309 -0.00755283 0)
(-0.00340452 -0.00555254 0)
(-0.0017075 -0.00358955 0)
(-0.000575899 -0.00180481 0)
(-7.90132e-05 -0.000390901 0)
(-0.0809693 -0.00118674 0)
(-0.0804024 -0.00371922 0)
(-0.0792485 -0.00620997 0)
(-0.0775205 -0.00862428 0)
(-0.0752392 -0.0109271 0)
(-0.072433 -0.0130835 0)
(-0.069138 -0.0150584 0)
(-0.0653977 -0.0168179 0)
(-0.0612634 -0.018329 0)
(-0.0567928 -0.0195605 0)
(-0.0520508 -0.0204837 0)
(-0.0471076 -0.0210732 0)
(-0.0420388 -0.0213078 0)
(-0.0369241 -0.0211714 0)
(-0.0318459 -0.0206545 0)
(-0.0268881 -0.0197553 0)
(-0.0221342 -0.0184815 0)
(-0.0176659 -0.016852 0)
(-0.013561 -0.0148993 0)
(-0.00989123 -0.012672 0)
(-0.00672142 -0.0102384 0)
(-0.00410542 -0.0076901 0)
(-0.00208382 -0.00514566 0)
(-0.000714322 -0.00275506 0)
(-0.000101391 -0.000715471 0)
(-0.0896455 -0.00146646 0)
(-0.0890375 -0.00461497 0)
(-0.0877915 -0.00771236 0)
(-0.0859209 -0.010716 0)
(-0.0834473 -0.0135831 0)
(-0.0804005 -0.0162704 0)
(-0.0768183 -0.0187353 0)
(-0.0727467 -0.020936 0)
(-0.0682397 -0.022832 0)
(-0.0633585 -0.0243852 0)
(-0.0581716 -0.0255603 0)
(-0.052754 -0.0263263 0)
(-0.0471861 -0.026657 0)
(-0.0415532 -0.0265328 0)
(-0.0359439 -0.0259416 0)
(-0.0304487 -0.0248809 0)
(-0.0251589 -0.0233592 0)
(-0.020164 -0.0213979 0)
(-0.0155508 -0.0190339 0)
(-0.0114015 -0.0163222 0)
(-0.00779207 -0.0133384 0)
(-0.0047893 -0.0101823 0)
(-0.00244773 -0.00698063 0)
(-0.000846223 -0.00388969 0)
(-0.000122055 -0.00110889 0)
(-0.0981178 -0.00175907 0)
(-0.0974756 -0.00557314 0)
(-0.096147 -0.00932658 0)
(-0.0941455 -0.0129685 0)
(-0.0914934 -0.0164477 0)
(-0.0882212 -0.0197126 0)
(-0.0843682 -0.0227123 0)
(-0.0799822 -0.0253967 0)
(-0.0751191 -0.0277175 0)
(-0.0698433 -0.0296289 0)
(-0.0642264 -0.0310885 0)
(-0.0583474 -0.0320591 0)
(-0.0522915 -0.0325089 0)
(-0.0461493 -0.032414 0)
(-0.0400153 -0.0317593 0)
(-0.0339872 -0.0305407 0)
(-0.0281636 -0.0287666 0)
(-0.022643 -0.0264602 0)
(-0.0175219 -0.023662 0)
(-0.0128932 -0.0204314 0)
(-0.00884534 -0.0168504 0)
(-0.0054584 -0.0130253 0)
(-0.00280115 -0.0090891 0)
(-0.000972853 -0.00520301 0)
(-0.000141417 -0.00156777 0)
(-0.106437 -0.00205907 0)
(-0.105768 -0.00658578 0)
(-0.104366 -0.0110425 0)
(-0.102244 -0.0153697 0)
(-0.0994262 -0.0195074 0)
(-0.0959423 -0.0233956 0)
(-0.0918327 -0.0269745 0)
(-0.0871463 -0.0301853 0)
(-0.081941 -0.0329711 0)
(-0.0762833 -0.0352782 0)
(-0.0702479 -0.0370565 0)
(-0.0639172 -0.0382615 0)
(-0.0573809 -0.0388555 0)
(-0.0507346 -0.0388093 0)
(-0.0440792 -0.038104 0)
(-0.0375193 -0.036733 0)
(-0.0311617 -0.0347035 0)
(-0.0251142 -0.0320397 0)
(-0.0194834 -0.0287839 0)
(-0.014374 -0.0249995 0)
(-0.00988745 -0.020773 0)
(-0.00611752 -0.0162161 0)
(-0.00314733 -0.0114669 0)
(-0.00109585 -0.00669064 0)
(-0.000159898 -0.00208961 0)
(-0.114642 -0.0023605 0)
(-0.113953 -0.00764484 0)
(-0.112486 -0.0128501 0)
(-0.110256 -0.017908 0)
(-0.107283 -0.0227498 0)
(-0.1036 -0.0273062 0)
(-0.0992473 -0.0315084 0)
(-0.0942736 -0.0352885 0)
(-0.0887383 -0.0385807 0)
(-0.0827098 -0.0413223 0)
(-0.0762652 -0.0434549 0)
(-0.0694904 -0.0449263 0)
(-0.062479 -0.0456918 0)
(-0.0553319 -0.0457159 0)
(-0.0481561 -0.0449749 0)
(-0.0410635 -0.0434585 0)
(-0.0341696 -0.041172 0)
(-0.0275917 -0.0381387 0)
(-0.0214476 -0.0344022 0)
(-0.0158543 -0.0300282 0)
(-0.0109266 -0.0251067 0)
(-0.00677275 -0.0197537 0)
(-0.00349012 -0.0141118 0)
(-0.00121696 -0.00834998 0)
(-0.00017789 -0.00267286 0)
(-0.122758 -0.00265693 0)
(-0.122055 -0.00874197 0)
(-0.120534 -0.0147394 0)
(-0.118206 -0.0205723 0)
(-0.115091 -0.0261625 0)
(-0.111222 -0.0314317 0)
(-0.106639 -0.0363014 0)
(-0.10139 -0.0406944 0)
(-0.0955371 -0.0445351 0)
(-0.0891483 -0.0477515 0)
(-0.0823035 -0.0502761 0)
(-0.0750912 -0.052048 0)
(-0.0676091 -0.0530142 0)
(-0.0599632 -0.0531325 0)
(-0.0522668 -0.0523727 0)
(-0.0446392 -0.0507198 0)
(-0.0372048 -0.0481757 0)
(-0.0300914 -0.0447618 0)
(-0.0234284 -0.0405215 0)
(-0.0173456 -0.0355215 0)
(-0.0119721 -0.0298544 0)
(-0.00743077 -0.0236397 0)
(-0.00383359 -0.0170241 0)
(-0.00133794 -0.0101804 0)
(-0.000195754 -0.00331696 0)
(-0.130796 -0.00294139 0)
(-0.13009 -0.00986828 0)
(-0.128524 -0.0167 0)
(-0.126109 -0.0233506 0)
(-0.122866 -0.0297329 0)
(-0.118825 -0.0357589 0)
(-0.114024 -0.0413405 0)
(-0.108515 -0.0463903 0)
(-0.102356 -0.050823 0)
(-0.0956184 -0.0545561 0)
(-0.0883825 -0.0575123 0)
(-0.0807399 -0.0596209 0)
(-0.0727917 -0.0608199 0)
(-0.0646489 -0.0610585 0)
(-0.056431 -0.0602992 0)
(-0.0482653 -0.0585207 0)
(-0.0402853 -0.05572 0)
(-0.0326297 -0.0519154 0)
(-0.0254401 -0.0471482 0)
(-0.0188601 -0.0414856 0)
(-0.0130335 -0.0350215 0)
(-0.00809838 -0.0278782 0)
(-0.00418179 -0.0202063 0)
(-0.00146047 -0.0121833 0)
(-0.000213814 -0.00402222 0)
(-0.138757 -0.0032064 0)
(-0.138056 -0.0110142 0)
(-0.136456 -0.0187203 0)
(-0.133968 -0.02623 0)
(-0.130611 -0.0334469 0)
(-0.126412 -0.0402733 0)
(-0.121411 -0.0466111 0)
(-0.115656 -0.0523627 0)
(-0.109206 -0.0574317 0)
(-0.102132 -0.0617252 0)
(-0.0945167 -0.0651548 0)
(-0.0864522 -0.067639 0)
(-0.0780436 -0.0691054 0)
(-0.0694066 -0.0694934 0)
(-0.0606669 -0.0687566 0)
(-0.0519597 -0.0668657 0)
(-0.0434283 -0.0638115 0)
(-0.0352226 -0.0596072 0)
(-0.0274972 -0.0542913 0)
(-0.0204099 -0.0479294 0)
(-0.0141203 -0.0406161 0)
(-0.00878228 -0.0324762 0)
(-0.00453865 -0.0236639 0)
(-0.00158612 -0.0143619 0)
(-0.00023237 -0.00478985 0)
(-0.146628 -0.00344394 0)
(-0.145942 -0.0121692 0)
(-0.14432 -0.0207878 0)
(-0.141773 -0.0291962 0)
(-0.138318 -0.0372889 0)
(-0.133979 -0.0449586 0)
(-0.128796 -0.0520968 0)
(-0.122813 -0.0585953 0)
(-0.116089 -0.0643465 0)
(-0.108696 -0.0692457 0)
(-0.100714 -0.0731928 0)
(-0.0922383 -0.0760942 0)
(-0.0833772 -0.0778658 0)
(-0.0742504 -0.0784355 0)
(-0.0649897 -0.0777464 0)
(-0.0557384 -0.0757595 0)
(-0.0466497 -0.0724574 0)
(-0.0378852 -0.0678467 0)
(-0.0296132 -0.0619612 0)
(-0.0220067 -0.054864 0)
(-0.0152416 -0.0466492 0)
(-0.00948892 -0.0374434 0)
(-0.00490792 -0.0274047 0)
(-0.00171642 -0.0167216 0)
(-0.000251694 -0.00562184 0)
(-0.154381 -0.00364556 0)
(-0.153719 -0.0133219 0)
(-0.15209 -0.0228883 0)
(-0.149501 -0.0322328 0)
(-0.145965 -0.0412408 0)
(-0.141508 -0.0497954 0)
(-0.136163 -0.0577779 0)
(-0.129974 -0.0650688 0)
(-0.122998 -0.0715489 0)
(-0.115304 -0.0771011 0)
(-0.106974 -0.0816122 0)
(-0.0981021 -0.0849756 0)
(-0.0887998 -0.0870936 0)
(-0.0791903 -0.0878812 0)
(-0.0694117 -0.0872689 0)
(-0.059615 -0.0852061 0)
(-0.0499636 -0.0816651 0)
(-0.0406315 -0.076644 0)
(-0.031801 -0.0701702 0)
(-0.0236615 -0.0623027 0)
(-0.0164062 -0.0531341 0)
(-0.0102245 -0.0427921 0)
(-0.0052932 -0.0314389 0)
(-0.00185278 -0.0192695 0)
(-0.000272043 -0.00652095 0)
(-0.161973 -0.00380245 0)
(-0.161347 -0.01446 0)
(-0.159725 -0.0250062 0)
(-0.157112 -0.0353211 0)
(-0.153518 -0.0452816 0)
(-0.148966 -0.0547612 0)
(-0.143485 -0.0636308 0)
(-0.137116 -0.0717597 0)
(-0.129914 -0.0790164 0)
(-0.121945 -0.0852705 0)
(-0.113288 -0.0903948 0)
(-0.10404 -0.0942681 0)
(-0.0943122 -0.0967779 0)
(-0.0842313 -0.0978239 0)
(-0.0739408 -0.097322 0)
(-0.0635998 -0.0952079 0)
(-0.0533819 -0.0914413 0)
(-0.0434735 -0.0860096 0)
(-0.0340724 -0.0789317 0)
(-0.0253846 -0.0702606 0)
(-0.0176225 -0.0600864 0)
(-0.0109949 -0.0485373 0)
(-0.00569792 -0.0357792 0)
(-0.00199656 -0.0220142 0)
(-0.00029366 -0.00749064 0)
(-0.169347 -0.00390561 0)
(-0.168768 -0.0155698 0)
(-0.16717 -0.0271236 0)
(-0.164553 -0.0384398 0)
(-0.160926 -0.0493868 0)
(-0.156306 -0.0598291 0)
(-0.15072 -0.0696274 0)
(-0.144204 -0.0786393 0)
(-0.136807 -0.0867207 0)
(-0.128593 -0.0937273 0)
(-0.119639 -0.0995167 0)
(-0.110041 -0.103952 0)
(-0.0999084 -0.106903 0)
(-0.0893724 -0.108253 0)
(-0.0785807 -0.107901 0)
(-0.0676998 -0.105765 0)
(-0.0569136 -0.101792 0)
(-0.0464217 -0.0959539 0)
(-0.0364376 -0.0882597 0)
(-0.0271855 -0.0787545 0)
(-0.0188982 -0.0675241 0)
(-0.0118057 -0.0546962 0)
(-0.0061254 -0.0404403 0)
(-0.00214909 -0.0249664 0)
(-0.000316784 -0.00853508 0)
(-0.176426 -0.00394602 0)
(-0.175907 -0.016637 0)
(-0.17435 -0.0292211 0)
(-0.171753 -0.0415645 0)
(-0.168122 -0.053528 0)
(-0.163467 -0.0649676 0)
(-0.157811 -0.0757337 0)
(-0.151185 -0.0856726 0)
(-0.143633 -0.0946271 0)
(-0.135213 -0.102438 0)
(-0.125999 -0.108947 0)
(-0.116082 -0.113999 0)
(-0.105574 -0.117447 0)
(-0.0946061 -0.119152 0)
(-0.0833293 -0.118995 0)
(-0.0719177 -0.116875 0)
(-0.060565 -0.11272 0)
(-0.0494844 -0.106486 0)
(-0.0389058 -0.0981685 0)
(-0.0290731 -0.0878022 0)
(-0.0202408 -0.0754667 0)
(-0.0126624 -0.0612881 0)
(-0.0065789 -0.0454393 0)
(-0.00231168 -0.0281381 0)
(-0.000341654 -0.00965912 0)
(-0.183118 -0.00391494 0)
(-0.18267 -0.0176461 0)
(-0.181174 -0.0312769 0)
(-0.178624 -0.0446677 0)
(-0.17502 -0.0576726 0)
(-0.170368 -0.0701396 0)
(-0.164685 -0.0819096 0)
(-0.157994 -0.0928176 0)
(-0.150333 -0.102693 0)
(-0.141754 -0.111361 0)
(-0.132325 -0.118647 0)
(-0.122133 -0.124376 0)
(-0.111287 -0.128379 0)
(-0.0999172 -0.130498 0)
(-0.0881789 -0.130589 0)
(-0.0762516 -0.12853 0)
(-0.0643389 -0.124226 0)
(-0.0526676 -0.117614 0)
(-0.0414847 -0.108672 0)
(-0.0310551 -0.097422 0)
(-0.0216573 -0.0839352 0)
(-0.0135704 -0.0683344 0)
(-0.00706165 -0.0507949 0)
(-0.00248567 -0.031543 0)
(-0.000368515 -0.0108683 0)
(-0.189308 -0.0038042 0)
(-0.188943 -0.0185811 0)
(-0.187528 -0.0332672 0)
(-0.185054 -0.0477183 0)
(-0.181514 -0.0617831 0)
(-0.17691 -0.0753022 0)
(-0.171248 -0.0881079 0)
(-0.164546 -0.100024 0)
(-0.156833 -0.110867 0)
(-0.148152 -0.120446 0)
(-0.138563 -0.128568 0)
(-0.128149 -0.135038 0)
(-0.117012 -0.139663 0)
(-0.105282 -0.14226 0)
(-0.0931146 -0.142661 0)
(-0.0806945 -0.140716 0)
(-0.0682344 -0.136305 0)
(-0.0559746 -0.129341 0)
(-0.0441804 -0.119782 0)
(-0.0331388 -0.107632 0)
(-0.0231544 -0.0929519 0)
(-0.0145349 -0.0758583 0)
(-0.00757699 -0.0565282 0)
(-0.00267243 -0.0351964 0)
(-0.000397629 -0.0121688 0)
(-0.194861 -0.00360658 0)
(-0.194592 -0.0194253 0)
(-0.19328 -0.0351661 0)
(-0.190913 -0.0506817 0)
(-0.187479 -0.0658167 0)
(-0.18297 -0.0804058 0)
(-0.177387 -0.0942733 0)
(-0.170736 -0.107233 0)
(-0.163037 -0.119087 0)
(-0.154322 -0.129631 0)
(-0.144643 -0.13865 0)
(-0.134071 -0.145927 0)
(-0.122704 -0.151247 0)
(-0.110666 -0.154396 0)
(-0.0981134 -0.155177 0)
(-0.085233 -0.153411 0)
(-0.0722461 -0.148946 0)
(-0.0594063 -0.141668 0)
(-0.0469975 -0.131509 0)
(-0.0353306 -0.118451 0)
(-0.0247388 -0.10254 0)
(-0.0155614 -0.0838846 0)
(-0.00812837 -0.0626621 0)
(-0.00287344 -0.0391152 0)
(-0.000429281 -0.0135676 0)
(-0.199621 -0.0033163 0)
(-0.199457 -0.020162 0)
(-0.198272 -0.0369459 0)
(-0.196046 -0.0535199 0)
(-0.192762 -0.0697257 0)
(-0.188406 -0.0853938 0)
(-0.182966 -0.100342 0)
(-0.176438 -0.114374 0)
(-0.168831 -0.127281 0)
(-0.160164 -0.13884 0)
(-0.150475 -0.148819 0)
(-0.139826 -0.156976 0)
(-0.128303 -0.163068 0)
(-0.116025 -0.166851 0)
(-0.103143 -0.168095 0)
(-0.089847 -0.166584 0)
(-0.0763639 -0.162132 0)
(-0.0629602 -0.15459 0)
(-0.0499389 -0.143859 0)
(-0.0376364 -0.129894 0)
(-0.026417 -0.112722 0)
(-0.0166556 -0.0924395 0)
(-0.00871955 -0.0692215 0)
(-0.00309033 -0.0433183 0)
(-0.000463791 -0.0150725 0)
(-0.203403 -0.00292946 0)
(-0.203355 -0.0207743 0)
(-0.202319 -0.0385773 0)
(-0.200271 -0.056191 0)
(-0.197188 -0.0734566 0)
(-0.193046 -0.0902021 0)
(-0.187823 -0.10624 0)
(-0.181502 -0.121367 0)
(-0.174076 -0.135362 0)
(-0.165551 -0.147987 0)
(-0.155951 -0.158988 0)
(-0.14532 -0.168099 0)
(-0.133734 -0.175047 0)
(-0.121299 -0.179556 0)
(-0.108161 -0.181356 0)
(-0.0945082 -0.180191 0)
(-0.0805718 -0.175834 0)
(-0.0666302 -0.168094 0)
(-0.0530056 -0.156834 0)
(-0.0400613 -0.141976 0)
(-0.0281958 -0.123521 0)
(-0.0178235 -0.101551 0)
(-0.0093547 -0.0762333 0)
(-0.00332496 -0.0478263 0)
(-0.000501532 -0.0166921 0)
(-0.206001 -0.00244464 0)
(-0.206076 -0.0212464 0)
(-0.205212 -0.0400297 0)
(-0.203382 -0.0586501 0)
(-0.200554 -0.0769507 0)
(-0.196694 -0.0947594 0)
(-0.191769 -0.111886 0)
(-0.185749 -0.12812 0)
(-0.178608 -0.143231 0)
(-0.170337 -0.156965 0)
(-0.160938 -0.16905 0)
(-0.150441 -0.179193 0)
(-0.138902 -0.187089 0)
(-0.126414 -0.192424 0)
(-0.113112 -0.194886 0)
(-0.0991787 -0.194174 0)
(-0.0848473 -0.190011 0)
(-0.0704062 -0.182158 0)
(-0.0561966 -0.170429 0)
(-0.04261 -0.154708 0)
(-0.0300822 -0.134961 0)
(-0.0190721 -0.111247 0)
(-0.0100386 -0.0837267 0)
(-0.00357946 -0.0526619 0)
(-0.000542941 -0.0184362 0)
(-0.207179 -0.00186349 0)
(-0.207382 -0.0215634 0)
(-0.206713 -0.0412715 0)
(-0.205141 -0.0608492 0)
(-0.202625 -0.0801441 0)
(-0.199123 -0.0989864 0)
(-0.194587 -0.117186 0)
(-0.188972 -0.134528 0)
(-0.182234 -0.150774 0)
(-0.174343 -0.165656 0)
(-0.16528 -0.178883 0)
(-0.155051 -0.190135 0)
(-0.143693 -0.199074 0)
(-0.131278 -0.205347 0)
(-0.117926 -0.208592 0)
(-0.103809 -0.208457 0)
(-0.0891596 -0.204607 0)
(-0.0742731 -0.196746 0)
(-0.0595084 -0.184631 0)
(-0.0452866 -0.168095 0)
(-0.032084 -0.147061 0)
(-0.020409 -0.121558 0)
(-0.0107768 -0.0917334 0)
(-0.00385641 -0.0578506 0)
(-0.000588553 -0.0203156 0)
(-0.206674 -0.00119128 0)
(-0.207007 -0.0217123 0)
(-0.206555 -0.0422712 0)
(-0.205281 -0.0627382 0)
(-0.203139 -0.0829682 0)
(-0.200074 -0.102797 0)
(-0.196026 -0.122037 0)
(-0.190932 -0.140473 0)
(-0.184729 -0.15786 0)
(-0.177361 -0.173919 0)
(-0.168787 -0.188341 0)
(-0.158986 -0.20078 0)
(-0.147965 -0.210862 0)
(-0.135775 -0.218192 0)
(-0.122513 -0.222356 0)
(-0.108335 -0.222941 0)
(-0.0934682 -0.219548 0)
(-0.0782096 -0.21181 0)
(-0.0629348 -0.199417 0)
(-0.0480947 -0.182138 0)
(-0.0342095 -0.15984 0)
(-0.0218434 -0.132516 0)
(-0.011576 -0.100288 0)
(-0.00415895 -0.0634207 0)
(-0.000639029 -0.0223429 0)
(-0.204192 -0.00043747 0)
(-0.204654 -0.0216825 0)
(-0.204438 -0.0429978 0)
(-0.203503 -0.0642652 0)
(-0.201798 -0.0853506 0)
(-0.199255 -0.106098 0)
(-0.195802 -0.126327 0)
(-0.191355 -0.145825 0)
(-0.185831 -0.164344 0)
(-0.17915 -0.181597 0)
(-0.171239 -0.197258 0)
(-0.162047 -0.210956 0)
(-0.15155 -0.222284 0)
(-0.139766 -0.230799 0)
(-0.126764 -0.236032 0)
(-0.112678 -0.237502 0)
(-0.0977203 -0.234734 0)
(-0.0821869 -0.227281 0)
(-0.0664657 -0.214748 0)
(-0.0510372 -0.196826 0)
(-0.0364685 -0.173314 0)
(-0.0233864 -0.144151 0)
(-0.0124446 -0.109428 0)
(-0.00449101 -0.0694041 0)
(-0.000695205 -0.0245321 0)
(-0.199413 0.000383787 0)
(-0.199997 -0.0214668 0)
(-0.200034 -0.0434219 0)
(-0.199479 -0.0653783 0)
(-0.198273 -0.087216 0)
(-0.19634 -0.108793 0)
(-0.193593 -0.129937 0)
(-0.18993 -0.150443 0)
(-0.185244 -0.170065 0)
(-0.179427 -0.188511 0)
(-0.172375 -0.205443 0)
(-0.164 -0.220468 0)
(-0.154242 -0.233142 0)
(-0.143078 -0.242977 0)
(-0.130542 -0.249443 0)
(-0.116735 -0.251985 0)
(-0.101848 -0.25004 0)
(-0.0861662 -0.243066 0)
(-0.0700863 -0.230569 0)
(-0.054116 -0.212141 0)
(-0.0388722 -0.187494 0)
(-0.0250513 -0.156495 0)
(-0.013393 -0.119195 0)
(-0.00485758 -0.0758373 0)
(-0.000758154 -0.0268999 0)
(-0.191985 0.00125335 0)
(-0.192682 -0.0210618 0)
(-0.192983 -0.0435165 0)
(-0.192845 -0.0660261 0)
(-0.192201 -0.0884885 0)
(-0.190968 -0.110778 0)
(-0.189042 -0.132737 0)
(-0.186306 -0.154173 0)
(-0.182627 -0.174846 0)
(-0.177869 -0.194465 0)
(-0.171892 -0.212683 0)
(-0.16457 -0.229088 0)
(-0.155797 -0.243206 0)
(-0.145504 -0.254499 0)
(-0.133677 -0.262375 0)
(-0.120378 -0.266196 0)
(-0.105762 -0.265304 0)
(-0.0900956 -0.259043 0)
(-0.0737749 -0.246801 0)
(-0.0573316 -0.228047 0)
(-0.0414338 -0.202382 0)
(-0.026855 -0.169582 0)
(-0.0144343 -0.129635 0)
(-0.00526508 -0.0827624 0)
(-0.00082928 -0.0294659 0)
(-0.18153 0.00214695 0)
(-0.182324 -0.0204684 0)
(-0.182899 -0.0432585 0)
(-0.18321 -0.0661602 0)
(-0.183188 -0.0890927 0)
(-0.182741 -0.111951 0)
(-0.181753 -0.134598 0)
(-0.18009 -0.156857 0)
(-0.177596 -0.1785 0)
(-0.174105 -0.199245 0)
(-0.16944 -0.21874 0)
(-0.163431 -0.236562 0)
(-0.155921 -0.252208 0)
(-0.146788 -0.265096 0)
(-0.135961 -0.274568 0)
(-0.123445 -0.2799 0)
(-0.109348 -0.280323 0)
(-0.0939057 -0.275054 0)
(-0.0775006 -0.263336 0)
(-0.060682 -0.24449 0)
(-0.0441683 -0.217974 0)
(-0.0288181 -0.183444 0)
(-0.0155856 -0.1408 0)
(-0.00572196 -0.0902289 0)
(-0.00091045 -0.0322533 0)
(-0.167645 0.0030354 0)
(-0.168515 -0.0196928 0)
(-0.169367 -0.0426299 0)
(-0.170155 -0.0657367 0)
(-0.170808 -0.0889573 0)
(-0.171229 -0.112212 0)
(-0.171293 -0.135387 0)
(-0.170849 -0.158329 0)
(-0.169721 -0.18083 0)
(-0.167713 -0.20262 0)
(-0.164612 -0.223355 0)
(-0.160199 -0.242605 0)
(-0.154265 -0.259847 0)
(-0.146622 -0.274458 0)
(-0.137131 -0.285717 0)
(-0.125728 -0.292808 0)
(-0.112457 -0.294843 0)
(-0.0975023 -0.290892 0)
(-0.0812185 -0.280027 0)
(-0.0641602 -0.261388 0)
(-0.0470931 -0.234251 0)
(-0.0309669 -0.19811 0)
(-0.016869 -0.15275 0)
(-0.00623943 -0.0982957 0)
(-0.00100419 -0.0352907 0)
(-0.149903 0.00388518 0)
(-0.150825 -0.0187467 0)
(-0.151949 -0.0416188 0)
(-0.153233 -0.0647185 0)
(-0.154607 -0.0880179 0)
(-0.155969 -0.111465 0)
(-0.15719 -0.134977 0)
(-0.158105 -0.158427 0)
(-0.158522 -0.181635 0)
(-0.158217 -0.204352 0)
(-0.156941 -0.226251 0)
(-0.154429 -0.246906 0)
(-0.15041 -0.265783 0)
(-0.144628 -0.282228 0)
(-0.136862 -0.29546 0)
(-0.126964 -0.304572 0)
(-0.114892 -0.308548 0)
(-0.100757 -0.306293 0)
(-0.0848627 -0.29668 0)
(-0.0677517 -0.278625 0)
(-0.050227 -0.251173 0)
(-0.0333342 -0.213609 0)
(-0.0183136 -0.165551 0)
(-0.00683257 -0.107034 0)
(-0.00111398 -0.0386135 0)
(-0.127862 0.00465952 0)
(-0.128806 -0.017647 0)
(-0.130192 -0.0402211 0)
(-0.131983 -0.0630783 0)
(-0.134109 -0.0862205 0)
(-0.136473 -0.109628 0)
(-0.138941 -0.13325 0)
(-0.141343 -0.156995 0)
(-0.143472 -0.180717 0)
(-0.145083 -0.204199 0)
(-0.145895 -0.22714 0)
(-0.145597 -0.249132 0)
(-0.143859 -0.269644 0)
(-0.140347 -0.288002 0)
(-0.13475 -0.303377 0)
(-0.126815 -0.314775 0)
(-0.116393 -0.321049 0)
(-0.103492 -0.320921 0)
(-0.0883362 -0.313035 0)
(-0.0714273 -0.296034 0)
(-0.0535889 -0.268675 0)
(-0.0359609 -0.229961 0)
(-0.0199576 -0.17928 0)
(-0.00752204 -0.116531 0)
(-0.00124469 -0.0422664 0)
(-0.101068 0.00532001 0)
(-0.102003 -0.0164161 0)
(-0.103633 -0.0384416 0)
(-0.105928 -0.0608008 0)
(-0.108825 -0.0835264 0)
(-0.112231 -0.106633 0)
(-0.116015 -0.130106 0)
(-0.120007 -0.153894 0)
(-0.123995 -0.177892 0)
(-0.127718 -0.201926 0)
(-0.130871 -0.225733 0)
(-0.133102 -0.248938 0)
(-0.134023 -0.271029 0)
(-0.13322 -0.291333 0)
(-0.130285 -0.308987 0)
(-0.124843 -0.322924 0)
(-0.116611 -0.331868 0)
(-0.10546 -0.334348 0)
(-0.0914936 -0.328746 0)
(-0.0751336 -0.313383 0)
(-0.0571935 -0.286648 0)
(-0.0388974 -0.247173 0)
(-0.0218523 -0.194025 0)
(-0.00833654 -0.126895 0)
(-0.00140338 -0.0463071 0)
(-0.0690641 0.0058289 0)
(-0.0699575 -0.0150808 0)
(-0.0718081 -0.0362949 0)
(-0.0745921 -0.0578856 0)
(-0.0782574 -0.0799167 0)
(-0.0827202 -0.102437 0)
(-0.0878599 -0.125472 0)
(-0.0935141 -0.149013 0)
(-0.0994727 -0.173003 0)
(-0.105472 -0.197319 0)
(-0.111191 -0.221752 0)
(-0.116248 -0.245976 0)
(-0.120203 -0.26952 0)
(-0.12257 -0.291734 0)
(-0.122832 -0.311748 0)
(-0.120483 -0.328442 0)
(-0.115078 -0.340426 0)
(-0.106312 -0.346034 0)
(-0.0941158 -0.343361 0)
(-0.0787752 -0.330345 0)
(-0.0610441 -0.30492 0)
(-0.0422035 -0.265229 0)
(-0.0240658 -0.209886 0)
(-0.00931666 -0.138263 0)
(-0.00160045 -0.0508116 0)
(-0.0314039 0.00615195 0)
(-0.0322248 -0.0136714 0)
(-0.0342638 -0.0338062 0)
(-0.0375071 -0.0543504 0)
(-0.0419154 -0.075397 0)
(-0.0474197 -0.0970286 0)
(-0.0539161 -0.11931 0)
(-0.0612585 -0.142279 0)
(-0.0692511 -0.165931 0)
(-0.0776395 -0.190203 0)
(-0.0861019 -0.214952 0)
(-0.0942414 -0.23992 0)
(-0.101582 -0.264701 0)
(-0.107572 -0.288696 0)
(-0.111595 -0.311064 0)
(-0.113001 -0.330668 0)
(-0.111162 -0.346029 0)
(-0.105552 -0.355302 0)
(-0.0958695 -0.356279 0)
(-0.082185 -0.346464 0)
(-0.0651164 -0.323229 0)
(-0.0459467 -0.28407 0)
(-0.0266896 -0.226971 0)
(-0.010521 -0.150812 0)
(-0.00185182 -0.0558824 0)
(0.012339 0.00626183 0)
(0.0116177 -0.01222 0)
(0.00942729 -0.0310115 0)
(0.00577057 -0.0502328 0)
(0.000671221 -0.0700026 0)
(-0.00582173 -0.0904345 0)
(-0.0136278 -0.111631 0)
(-0.0226272 -0.133675 0)
(-0.0326509 -0.156618 0)
(-0.0434692 -0.180464 0)
(-0.0547785 -0.205144 0)
(-0.0661879 -0.230488 0)
(-0.0772071 -0.256181 0)
(-0.0872391 -0.281711 0)
(-0.0955819 -0.306306 0)
(-0.101448 -0.328861 0)
(-0.104008 -0.34786 0)
(-0.102477 -0.361312 0)
(-0.0962459 -0.366719 0)
(-0.0850743 -0.361105 0)
(-0.0693287 -0.341166 0)
(-0.0501938 -0.303564 0)
(-0.0298449 -0.24539 0)
(-0.0120359 -0.164767 0)
(-0.0021828 -0.0616616 0)
(0.062554 0.00614185 0)
(0.0619522 -0.0107585 0)
(0.0596521 -0.0279578 0)
(0.0556446 -0.0455929 0)
(0.0499353 -0.0638031 0)
(0.0425494 -0.0827277 0)
(0.033537 -0.102502 0)
(0.0229823 -0.123253 0)
(0.0110144 -0.145085 0)
(-0.00217911 -0.168071 0)
(-0.0163347 -0.192227 0)
(-0.0310942 -0.217483 0)
(-0.0459835 -0.243639 0)
(-0.0603934 -0.270308 0)
(-0.0735662 -0.29684 0)
(-0.0845963 -0.322223 0)
(-0.0924581 -0.344979 0)
(-0.0960772 -0.363041 0)
(-0.0944663 -0.373663 0)
(-0.086951 -0.373381 0)
(-0.0734855 -0.35811 0)
(-0.0549886 -0.323447 0)
(-0.0336895 -0.265231 0)
(-0.0139912 -0.180419 0)
(-0.00263515 -0.0683516 0)
(0.119576 0.00578972 0)
(0.119104 -0.00931665 0)
(0.116739 -0.0247024 0)
(0.11246 -0.0405146 0)
(0.106253 -0.0569059 0)
(0.0981168 -0.0740344 0)
(0.0880656 -0.0920617 0)
(0.0761398 -0.11115 0)
(0.0624159 -0.131453 0)
(0.0470223 -0.15311 0)
(0.0301585 -0.176223 0)
(0.0121191 -0.200831 0)
(-0.00667673 -0.22687 0)
(-0.0256533 -0.254113 0)
(-0.0440463 -0.282083 0)
(-0.0608787 -0.309944 0)
(-0.0749585 -0.336349 0)
(-0.0849202 -0.35927 0)
(-0.0893417 -0.375812 0)
(-0.0869826 -0.382071 0)
(-0.0771725 -0.373116 0)
(-0.0602992 -0.343226 0)
(-0.0384177 -0.28652 0)
(-0.0165852 -0.198142 0)
(-0.00328049 -0.0762508 0)
(0.183666 0.00522084 0)
(0.183322 -0.00791964 0)
(0.180938 -0.021312 0)
(0.176482 -0.0351057 0)
(0.169923 -0.0494588 0)
(0.161228 -0.0645388 0)
(0.150376 -0.0805237 0)
(0.137355 -0.097601 0)
(0.12218 -0.115965 0)
(0.104905 -0.13581 0)
(0.0856425 -0.157318 0)
(0.0645914 -0.180639 0)
(0.0420714 -0.205855 0)
(0.0185674 -0.232922 0)
(-0.00521923 -0.261591 0)
(-0.0283172 -0.291279 0)
(-0.0494412 -0.320897 0)
(-0.066981 -0.348607 0)
(-0.0790664 -0.371546 0)
(-0.0837761 -0.385512 0)
(-0.0795638 -0.384754 0)
(-0.0658993 -0.362017 0)
(-0.0442364 -0.309112 0)
(-0.0201213 -0.218399 0)
(-0.00424507 -0.0858144 0)
(0.25499 0.00447048 0)
(0.254758 -0.00658656 0)
(0.252401 -0.0178616 0)
(0.24788 -0.0294984 0)
(0.241143 -0.041651 0)
(0.232133 -0.0544863 0)
(0.220787 -0.0681868 0)
(0.207044 -0.0829525 0)
(0.190851 -0.0990018 0)
(0.172176 -0.11657 0)
(0.151027 -0.135905 0)
(0.127477 -0.157253 0)
(0.101704 -0.180835 0)
(0.074036 -0.206805 0)
(0.0450253 -0.235173 0)
(0.015527 -0.265684 0)
(-0.0132061 -0.297632 0)
(-0.0394403 -0.329573 0)
(-0.0609298 -0.35893 0)
(-0.0750297 -0.381496 0)
(-0.0790757 -0.390901 0)
(-0.0711127 -0.378275 0)
(-0.0512709 -0.332486 0)
(-0.0250516 -0.241712 0)
(-0.00575393 -0.0977611 0)
(0.333594 0.00359418 0)
(0.333446 -0.00532973 0)
(0.331164 -0.0144334 0)
(0.326702 -0.0238469 0)
(0.319993 -0.0337115 0)
(0.310957 -0.0441827 0)
(0.299496 -0.0554346 0)
(0.285501 -0.0676643 0)
(0.268852 -0.0810961 0)
(0.24943 -0.0959848 0)
(0.22713 -0.112617 0)
(0.201881 -0.131312 0)
(0.173678 -0.152404 0)
(0.142637 -0.176228 0)
(0.109066 -0.203056 0)
(0.0735662 -0.233006 0)
(0.0371774 -0.265864 0)
(0.00154018 -0.300786 0)
(-0.0309366 -0.335825 0)
(-0.0570038 -0.367222 0)
(-0.0727594 -0.38848 0)
(-0.0742783 -0.389363 0)
(-0.059284 -0.355325 0)
(-0.0319917 -0.268524 0)
(-0.00819914 -0.113242 0)
(0.419388 0.00266544 0)
(0.419286 -0.00415581 0)
(0.417127 -0.0111167 0)
(0.41286 -0.018327 0)
(0.406411 -0.0259068 0)
(0.397681 -0.0339907 0)
(0.386546 -0.0427323 0)
(0.372857 -0.0523101 0)
(0.356439 -0.0629336 0)
(0.337093 -0.0748513 0)
(0.314607 -0.0883578 0)
(0.288762 -0.103802 0)
(0.259359 -0.12159 0)
(0.226256 -0.142185 0)
(0.189437 -0.166083 0)
(0.149114 -0.19376 0)
(0.105893 -0.22554 0)
(0.0610079 -0.261345 0)
(0.0166346 -0.300211 0)
(-0.0237728 -0.339448 0)
(-0.0552836 -0.373291 0)
(-0.0716707 -0.390993 0)
(-0.0669124 -0.374742 0)
(-0.0415363 -0.298749 0)
(-0.0121936 -0.134045 0)
(0.512121 0.00176996 0)
(0.512025 -0.00306911 0)
(0.510041 -0.00800846 0)
(0.506119 -0.0131328 0)
(0.500183 -0.0185356 0)
(0.492125 -0.0243226 0)
(0.481808 -0.030617 0)
(0.469057 -0.0375648 0)
(0.45366 -0.0453423 0)
(0.435362 -0.0541652 0)
(0.413866 -0.0643001 0)
(0.388828 -0.076079 0)
(0.359869 -0.0899153 0)
(0.326591 -0.106322 0)
(0.288619 -0.125924 0)
(0.245676 -0.149458 0)
(0.197731 -0.177725 0)
(0.145252 -0.21144 0)
(0.0896122 -0.250872 0)
(0.0336957 -0.295039 0)
(-0.0173564 -0.340117 0)
(-0.0554204 -0.376583 0)
(-0.0697303 -0.384945 0)
(-0.0532976 -0.330658 0)