
Running Job 1 of 1 /carc/scratch/projects/mfricke/mfricke2016402/test-programs/q-chem/mbe_bsse_4water_mpi.in
qchem /carc/scratch/projects/mfricke/mfricke2016402/test-programs/q-chem/mbe_bsse_4water_mpi.in_1242762.0 /tmp/qchem-mfricke-504614/run-6.4-mpi-504614/ 2
srun -n 2 /opt/local/q-chem/6.4/cpu/exe/qcprog.exe /carc/scratch/projects/mfricke/mfricke2016402/test-programs/q-chem/mbe_bsse_4water_mpi.in_1242762.0 /tmp/qchem-mfricke-504614/run-6.4-mpi-504614/

                  Welcome to Q-Chem
     A Quantum Leap Into The Future Of Chemistry


 Q-Chem 6.4, Q-Chem, Inc., Pleasanton, CA (2025)

 License issued to: SRG Susan Atlas, University of New Mexico

 E. Epifanovsky,  A. T. B. Gilbert,  Xintian Feng,  Joonho Lee,  Yuezhi Mao,  
 N. Mardirossian,  P. Pokhilko,  A. White,  M. Wormit,  M. P. Coons,  
 A. L. Dempwolff,  Zhengting Gan,  D. Hait,  P. R. Horn,  L. D. Jacobson,  
 I. Kaliman,  J. Kussmann,  A. W. Lange,  Ka Un Lao,  D. S. Levine,  Jie Liu,  
 S. C. McKenzie,  A. F. Morrison,  K. D. Nanda,  F. Plasser,  D. R. Rehn,  
 M. L. Vidal,  Zhi-Qiang You,  Ying Zhu,  Huseyin Aksu,  B. Alam,  
 B. Albrecht,  A. Aldossary,  E. Alguire,  J. H. Andersen,  
 J. E. Arias-Martinez,  V. Athavale,  F. Ballesteros,  D. Barton,  K. Begam,  
 A. Behn,  N. Bellonzi,  Y. A. Bernard,  E. J. Berquist,  H. Burton,  
 S. Camps,  A. Carreras,  K. Carter-Fenk,  Mathew Chow,  Jeng-Da Chai,  
 Arnab Chakraborty,  Romit Chakraborty,  Chandrima Chakravarty,  Junhan Chen,  
 A. D. Chien,  K. D. Closser,  V. Cofer-Shabica,  L. Cunha,  S. Dasgupta,  
 Jia Deng,  Joseph Dickinson,  M. de Wergifosse,  M. Diedenhofen,  
 L. B. Dittmer,  Hainam Do,  Wenjie Dou,  S. Ehlert,  Po-Tung Fang,  
 Anthuan Ferino-Pérez,  S. Fatehi,  Qingguo Feng,  Jonathan Fetherolf,  
 T. Friedhoff,  Thomas Froitzheim,  Sarai Folkestad,  B. Ganoe,  J. Gayvert,  
 Qinghui Ge,  G. Gidofalvi,  M. Gimferrer,  G. Giudetti,  M. Goldey,  
 Montgomery Gray,  J. Gomes,  C. Gonzalez-Espinoza,  S. Gulania,  A. Gunina,  
 J. A. Gyamfi,  M. W. D. Hanson-Heine,  P. H. P. Harbach,  A. W. Hauser,  
 M. F. Herbst,  M. Hernandez Vera,  M. Hodecker,  Z. C. Holden,  S. Houck,  
 Xunkun Huang,  Kerwin Hui,  B. C. Huynh,  K. Ikeda,  M. Ivanov,  
 Nayanthara K. Jayadev,  Hyunjun Ji,  Zuxin Jin,  Hanjie Jiang,  
 Subrata Jana,  B. Kaduk,  S. Kaehler,  Richard Kang,  K. Khistyaev,  
 Jaehoon Kim,  Yongbin Kim,  P. Klunzinger,  Z. Koczor-Benda,  
 Joong Hoon Koh,  Elena Kolodzeiski,  D. Kosenkov,  Saikiran Kotaru,  
 L. Koulias,  T. Kowalczyk,  C. M. Krauter,  K. Kue,  A. Kunitsa,  T. Kus,  
 A. Landau,  C. W. Lander,  K. V. Lawler,  D. Lefrancois,  S. Lehtola,  
 Rain Li,  Shaozhi Li,  Tao E. Li,  Yi-Pei Li,  Jiashu Liang,  M. Liebenthal,  
 Hung-Hsuan Lin,  You-Sheng Lin,  Fenglai Liu,  Kuan-Yu Liu,  Xiao Liu,  
 M. Loipersberger,  A. Luenser,  C. Malbon,  Aniket Mandal,  Manisha,  
 A. Manjanath,  P. Manohar,  E. Mansoor,  S. F. Manzer,  Shan-Ping Mao,  
 A. V. Marenich,  T. Markovich,  S. Mason,  F. Matz,  S. A. Maurer,  
 Samuel May,  Alexandra McIsaac,  P. F. McLaughlin,  M. F. S. J. Menger,  
 J.-M. Mewes,  S. A. Mewes,  R. E. Moorby,  P. Morgante,  
 Mohammad Mostafanejad,  Madhubani Mukherjee,  J. W. Mullinax,  Quyen Nguyen,  
 Avik Kumar Ojha,  K. J. Oosterbaan,  Eno Paenurk,  Xiaoliang Pan,  G. Paran,  
 V. Parravicini,  R. L. Patterson,  Alexander C. Paul,  Suranjan K. Paul,  
 F. Pavosevic,  Zheng Pei,  P. Pokhilko,  S. Prager,  E. I. Proynov,  
 E. Ramos,  B. Rana,  A. E. Rask,  A. Rettig,  R. M. Richard,  F. Rob,  
 E. Rossomme,  S. Roy,  T. Scheele,  M. Scheurer,  M. Schneider,  
 P. E. Schneider,  Tim K. Schramm,  N. Sergueev,  S. M. Sharada,  
 Hengyuan Shen,  W. Skomorowski,  D. W. Small,  C. J. Stein,  
 Alistair J. Sterling,  Yingli Su,  Yu-Chuan Su,  E. J. Sundstrom,  
 J. Talbot,  J. A. Tan,  Zhen Tao,  Hung-Hsuan Teh,  J. Thirman,  C. Titeca,  
 N. Tkachenko,  Hung-Yi Tsai,  T. Tsuchimochi,  N. M. Tubman,  C. Utku,  
 S. P. Veccham,  O. Vydrov,  Z. Wang,  Markus G. S. Weiss,  Rahel Weiss,  
 J. Wenzel,  Jonathan Wong,  J. Witte,  H. Wu,  Yanze Wu,  A. Yamada,  
 Chou-Hsun Yang,  Kun Yao,  S. Yeganeh,  S. R. Yost,  Qi Yu,  A. Zech,  
 F. Zeller,  Chongxiao Zhao,  T. Zhao,  Igor Ying Zhang,  Xing Zhang,  
 Yu Zhang,  Zeyi Zhang,  D. Zuev,  A. Aspuru-Guzik,  A. T. Bell,  
 N. A. Besley,  K. B. Bravaya,  B. R. Brooks,  D. Casanova,  Jeng-Da Chai,  
 Hsing-Ta Chen,  S. Coriani,  C. J. Cramer,  A. E. DePrince, III,  
 R. A. DiStasio Jr.,  A. Dreuw,  B. D. Dunietz,  T. R. Furlani,  
 W. A. Goddard III,  S. Grimme,  S. Hammes-Schiffer,  T. Head-Gordon,  
 W. J. Hehre,  Chao-Ping Hsu,  T.-C. Jagau,  Yousung Jung,  A. Klamt,  
 Jing Kong,  D. S. Lambrecht,  Xiangyuan Li,  WanZhen Liang,  N. J. Mayhall,  
 C. W. McCurdy,  J. B. Neaton,  T. Neudecker,  C. Ochsenfeld,  
 J. A. Parkhill,  R. Peverati,  V. A. Rassolov,  Haisheng Ren,  Yihan Shao,  
 L. V. Slipchenko,  R. P. Steele,  J. E. Subotnik,  A. J. W. Thom,  
 A. Tkatchenko,  D. G. Truhlar,  T. Van Voorhis,  Fan Wang,  
 T. A. Wesolowski,  K. B. Whaley,  H. L. Woodcock III,  P. M. Zimmerman,  
 S. Faraji,  P. M. W. Gill,  M. Head-Gordon,  J. M. Herbert,  A. I. Krylov

 Contributors to earlier versions of Q-Chem not listed above: 
 R. D. Adamson,  B. Austin,  R. Baer,  J. Baker,  G. J. O. Beran,  
 K. Brandhorst,  S. T. Brown,  E. F. C. Byrd,  Arup K. Chakraborty,  
 G. K. L. Chan,  Chun-Min Chang,  Yunqing Chen,  C.-L. Cheng,  
 Siu Hung Chien,  D. M. Chipman,  D. L. Crittenden,  H. Dachsel,  
 R. J. Doerksen,  A. D. Dutoi,  R. G. Edgar,  J. Fosso-Tande,  
 L. Fusti-Molnar,  D. Ghosh,  A. Ghysels,  A. Golubeva-Zadorozhnaya,  
 J. Gonthier,  M. S. Gordon,  S. R. Gwaltney,  G. Hawkins,  J. E. Herr,  
 A. Heyden,  S. Hirata,  E. G. Hohenstein,  G. Kedziora,  F. J. Keil,  
 C. Kelley,  Jihan Kim,  R. A. King,  R. Z. Khaliullin,  P. P. Korambath,  
 W. Kurlancheek,  A. Laurent,  A. M. Lee,  M. S. Lee,  S. V. Levchenko,  
 Ching Yeh Lin,  D. Liotard,  E. Livshits,  R. C. Lochan,  I. Lotan,  
 L. A. Martinez-Martinez,  P. E. Maslen,  N. Nair,  D. P. O'Neill,  
 D. Neuhauser,  E. Neuscamman,  C. M. Oana,  R. Olivares-Amaya,  R. Olson,  
 T. M. Perrine,  B. Peters,  P. A. Pieniazek,  A. Prociuk,  Y. M. Rhee,  
 J. Ritchie,  M. A. Rohrdanz,  E. Rosta,  N. J. Russ,  H. F. Schaefer III,  
 M. W. Schmidt,  N. E. Schultz,  S. Sharma,  N. Shenvi,  C. D. Sherrill,  
 A. C. Simmonett,  A. Sodt,  T. Stein,  D. Stuck,  K. S. Thanthiriwatte,  
 V. Vanovschi,  L. Vogt,  Tao Wang,  A. Warshel,  M. A. Watson,  
 C. F. Williams,  Q. Wu,  X. Xu,  Jun Yang,  W. Zhang,  Yan Zhao

   Please cite Q-Chem as follows:
  "Software for the frontiers of quantum chemistry:
   An overview of developments in the Q-Chem 5 package"
   J. Chem. Phys. 155, 084801 (2021)
   https://doi.org/10.1063/5.0055522 (open access)

 Q-Chem 6.4.0 for Intel X86 EM64T Linux

 Parts of Q-Chem use Armadillo 12.8.2 (Cortisol Injector).
 http://arma.sourceforge.net/

 Q-Chem begins on Thu May 28 21:45:37 2026  

 Host: 
0

 Scratch files written to /tmp/qchem-mfricke-504614/run-6.4-mpi-504614//
 Executable: /opt/local/q-chem/6.4/cpu/exe/qcprog.exe
 Number of threads = 4
 Dec1625 |scratch|qcdevops|jenkins|workspace|build_RNUM -1
 Processing $rem in /opt/local/q-chem/6.4/cpu/config/preferences:
 Processing $rem in /carc/scratch/projects/mfricke/mfricke2016402/test-programs/q-chem/run-6.4-mpi-504614/.qchemrc:
 Symmetry turned off for MBE calculation

 Checking the input file for inconsistencies... 	...done.

--------------------------------------------------------------
User input:
--------------------------------------------------------------
$comment
Q-Chem 6.4 MPI smoke test based on the shipped 4-water MBE-BSSE sample.
$end

$rem
METHOD          B3LYP
BASIS           CC-PVDZ
MANY_BODY_INT   TRUE
THRESH          14
SCF_CONVERGENCE 8
SYM_IGNORE      TRUE
$end

$mbe
ORDER      3
BSSE_TYPE  MBCP
BSSE_ORDER 3
$end

$molecule
0 1
--
0 1
O -1.126149 -1.748387 -0.423240
H -0.234788 -1.493897 -0.661862
H -1.062789 -2.681331 -0.218819
--
0 1
O -0.254210  1.611495 -1.293845
H -1.001520  1.163510 -1.690129
H -0.153399  2.411746 -1.809248
--
0 1
O  1.694541 -0.226287  1.705739
H  0.785920  0.073487  1.677909
H  2.047134  0.150917  2.511706
--
0 1
O -0.864533  0.522472  1.218817
H -0.694120  1.093542  0.469789
H -1.131418 -0.310426  0.829702
$end
--------------------------------------------------------------
 ----------------------------------------------------------------
             Standard Nuclear Orientation (Angstroms)
    I     Atom           X                Y                Z
 ----------------------------------------------------------------
    1      O      -1.1261490000    -1.7483870000    -0.4232400000
    2      H      -0.2347880000    -1.4938970000    -0.6618620000
    3      H      -1.0627890000    -2.6813310000    -0.2188190000
    4      O      -0.2542100000     1.6114950000    -1.2938450000
    5      H      -1.0015200000     1.1635100000    -1.6901290000
    6      H      -0.1533990000     2.4117460000    -1.8092480000
    7      O       1.6945410000    -0.2262870000     1.7057390000
    8      H       0.7859200000     0.0734870000     1.6779090000
    9      H       2.0471340000     0.1509170000     2.5117060000
   10      O      -0.8645330000     0.5224720000     1.2188170000
   11      H      -0.6941200000     1.0935420000     0.4697890000
   12      H      -1.1314180000    -0.3104260000     0.8297020000
 ----------------------------------------------------------------
 Nuclear Repulsion Energy =         135.96955579 hartrees
 There are       20 alpha and       20 beta electrons
 Requested basis set is cc-pVDZ
 There are 48 shells and 96 basis functions

 Total QAlloc Memory Limit   8000 MB
 Mega-Array Size       188 MB
 MEM_STATIC part       192 MB


                       Distance Matrix (Angstroms)
             O (  1)   H (  2)   H (  3)   O (  4)   H (  5)   H (  6)
   H (  2)  0.957199
   H (  3)  0.957177  1.513893
   O (  4)  3.578692  3.169107  4.498648
   H (  5)  3.178000  2.950767  4.117197  0.957185
   H (  6)  4.491544  4.071507  5.412568  0.957186  1.513800
   O (  7)  3.847809  3.306763  4.163416  4.021514  4.553263  4.767519
   H (  8)  3.374916  2.995508  3.821560  3.504092  3.965699  4.302330
   H (  9)  4.721333  4.240768  5.014880  4.680992  5.289145  5.350172
   O ( 10)  2.814533  2.828299  3.517166  2.805697  2.981889  3.639264
   H ( 11)  3.010101  2.861199  3.854836  1.890027  2.182805  2.687759
   H ( 12)  1.907255  2.104593  2.593318  2.995451  2.922141  3.915456
             O (  7)   H (  8)   H (  9)   O ( 10)   H ( 11)
   H (  8)  0.957200
   H (  9)  0.957177  1.513894
   O ( 10)  2.710460  1.770974  3.207401
   H ( 11)  2.995868  2.165776  3.545764  0.957186
   H ( 12)  2.959825  2.131438  3.625627  0.957265  1.513900
 
 A cutoff of  1.0D-14 yielded   1127 shell pairs
 There are      4503 function pairs (      4888 Cartesian)
 Smallest overlap matrix eigenvalue = 2.60E-02

 Scale SEOQF with 1.000000e-01/1.000000e-01/1.000000e-01

 Standard Electronic Orientation quadrupole field applied
 Nucleus-field energy     =    -0.0000000007 hartrees
 Guess from superposition of atomic densities
 Warning:  Energy on first SCF cycle will be non-variational
 SAD guess density has 40.000000 electrons
	Fragment  1: charge and multip: 0 1, NAlpha NBeta:   5   5
	Fragment  2: charge and multip: 0 1, NAlpha NBeta:   5   5
	Fragment  3: charge and multip: 0 1, NAlpha NBeta:   5   5
	Fragment  4: charge and multip: 0 1, NAlpha NBeta:   5   5
                  Welcome to Q-Chem
     A Quantum Leap Into The Future Of Chemistry


 Q-Chem 6.4, Q-Chem, Inc., Pleasanton, CA (2025)

 Created directory /tmp/qchem-mfricke-504614/run-6.4-mpi-504614/xpol_diis
==============================================================
   Many-Body Expansion:  MBE(3)
   Many-Body Correction for BSSE:  MBCP(3)

   Ka Un Lao, John M. Herbert
==============================================================

 ***************************************************
 ***** PERFORMING MANY-BODY ENERGY CALCULATION *****
 ***************************************************

====================================
      3-Body
====================================
 Guess from superposition of atomic densities
 Warning:  Energy on first SCF cycle will be non-variational
 SAD guess density has 30.000000 electrons

                       Distance Matrix (Angstroms)
             O (  1)   H (  2)   H (  3)   O (  4)   H (  5)   H (  6)
   H (  2)  0.957199
   H (  3)  0.957177  1.513893
   O (  4)  3.578692  3.169107  4.498648
   H (  5)  3.178000  2.950767  4.117197  0.957185
   H (  6)  4.491544  4.071507  5.412568  0.957186  1.513800
   O (  7)  3.847809  3.306763  4.163416  4.021514  4.553263  4.767519
   H (  8)  3.374916  2.995508  3.821560  3.504092  3.965699  4.302330
   H (  9)  4.721333  4.240768  5.014880  4.680992  5.289145  5.350172
             O (  7)   H (  8)
   H (  8)  0.957200
   H (  9)  0.957177  1.513894
 
 Applying Cartesian multipole field
    Component          Value
    ---------          -----
     (2,0,0)        1.00000E-11
     (0,2,0)        2.00000E-11
     (0,0,2)       -3.00000E-11
 Nucleus-field energy     =     0.0000000001 hartrees
 Guess from superposition of atomic densities
 Warning:  Energy on first SCF cycle will be non-variational
 SAD guess density has 30.000000 electrons
 A restricted hybrid HF-DFT SCF calculation will be
 performed using Pulay DIIS extrapolation
 Exchange:     0.2000 Hartree-Fock + 0.0800 Slater + 0.7200 B88
 Correlation:  0.1900 VWN1RPA + 0.8100 LYP
 Using SG-1 standard quadrature grid
 SCF converges when DIIS error is below 1.0E-08
 using 4 threads for integral computing
 -------------------------------------------------------
 OpenMP Integral computing Module                
 Release: version 1.0, May 2013, Q-Chem Inc. Pittsburgh 
 -------------------------------------------------------
 License issued to: SRG Susan Atlas, University of New Mexico

 E. Epifanovsky,  A. T. B. Gilbert,  Xintian Feng,  Joonho Lee,  Yuezhi Mao,  
 N. Mardirossian,  P. Pokhilko,  A. White,  M. Wormit,  M. P. Coons,  
 A. L. Dempwolff,  Zhengting Gan,  D. Hait,  P. R. Horn,  L. D. Jacobson,  
 I. Kaliman,  J. Kussmann,  A. W. Lange,  Ka Un Lao,  D. S. Levine,  Jie Liu,  
 S. C. McKenzie,  A. F. Morrison,  K. D. Nanda,  F. Plasser,  D. R. Rehn,  
 M. L. Vidal,  Zhi-Qiang You,  Ying Zhu,  Huseyin Aksu,  B. Alam,  
 B. Albrecht,  A. Aldossary,  E. Alguire,  J. H. Andersen,  
 J. E. Arias-Martinez,  V. Athavale,  F. Ballesteros,  D. Barton,  K. Begam,  
 A. Behn,  N. Bellonzi,  Y. A. Bernard,  E. J. Berquist,  H. Burton,  
 S. Camps,  A. Carreras,  K. Carter-Fenk,  Mathew Chow,  Jeng-Da Chai,  
 Arnab Chakraborty,  Romit Chakraborty,  Chandrima Chakravarty,  Junhan Chen,  
 A. D. Chien,  K. D. Closser,  V. Cofer-Shabica,  L. Cunha,  S. Dasgupta,  
 Jia Deng,  Joseph Dickinson,  M. de Wergifosse,  M. Diedenhofen,  
 L. B. Dittmer,  Hainam Do,  Wenjie Dou,  S. Ehlert,  Po-Tung Fang,  
 Anthuan Ferino-Pérez,  S. Fatehi,  Qingguo Feng,  Jonathan Fetherolf,  
 T. Friedhoff,  Thomas Froitzheim,  Sarai Folkestad,  B. Ganoe,  J. Gayvert,  
 Qinghui Ge,  G. Gidofalvi,  M. Gimferrer,  G. Giudetti,  M. Goldey,  
 Montgomery Gray,  J. Gomes,  C. Gonzalez-Espinoza,  S. Gulania,  A. Gunina,  
 J. A. Gyamfi,  M. W. D. Hanson-Heine,  P. H. P. Harbach,  A. W. Hauser,  
 M. F. Herbst,  M. Hernandez Vera,  M. Hodecker,  Z. C. Holden,  S. Houck,  
 Xunkun Huang,  Kerwin Hui,  B. C. Huynh,  K. Ikeda,  M. Ivanov,  
 Nayanthara K. Jayadev,  Hyunjun Ji,  Zuxin Jin,  Hanjie Jiang,  
 Subrata Jana,  B. Kaduk,  S. Kaehler,  Richard Kang,  K. Khistyaev,  
 Jaehoon Kim,  Yongbin Kim,  P. Klunzinger,  Z. Koczor-Benda,  
 Joong Hoon Koh,  Elena Kolodzeiski,  D. Kosenkov,  Saikiran Kotaru,  
 L. Koulias,  T. Kowalczyk,  C. M. Krauter,  K. Kue,  A. Kunitsa,  T. Kus,  
 A. Landau,  C. W. Lander,  K. V. Lawler,  D. Lefrancois,  S. Lehtola,  
 Rain Li,  Shaozhi Li,  Tao E. Li,  Yi-Pei Li,  Jiashu Liang,  M. Liebenthal,  
 Hung-Hsuan Lin,  You-Sheng Lin,  Fenglai Liu,  Kuan-Yu Liu,  Xiao Liu,  
 M. Loipersberger,  A. Luenser,  C. Malbon,  Aniket Mandal,  Manisha,  
 A. Manjanath,  P. Manohar,  E. Mansoor,  S. F. Manzer,  Shan-Ping Mao,  
 A. V. Marenich,  T. Markovich,  S. Mason,  F. Matz,  S. A. Maurer,  
 Samuel May,  Alexandra McIsaac,  P. F. McLaughlin,  M. F. S. J. Menger,  
 J.-M. Mewes,  S. A. Mewes,  R. E. Moorby,  P. Morgante,  
 Mohammad Mostafanejad,  Madhubani Mukherjee,  J. W. Mullinax,  Quyen Nguyen,  
 Avik Kumar Ojha,  K. J. Oosterbaan,  Eno Paenurk,  Xiaoliang Pan,  G. Paran,  
 V. Parravicini,  R. L. Patterson,  Alexander C. Paul,  Suranjan K. Paul,  
 F. Pavosevic,  Zheng Pei,  P. Pokhilko,  S. Prager,  E. I. Proynov,  
 E. Ramos,  B. Rana,  A. E. Rask,  A. Rettig,  R. M. Richard,  F. Rob,  
 E. Rossomme,  S. Roy,  T. Scheele,  M. Scheurer,  M. Schneider,  
 P. E. Schneider,  Tim K. Schramm,  N. Sergueev,  S. M. Sharada,  
 Hengyuan Shen,  W. Skomorowski,  D. W. Small,  C. J. Stein,  
 Alistair J. Sterling,  Yingli Su,  Yu-Chuan Su,  E. J. Sundstrom,  
 J. Talbot,  J. A. Tan,  Zhen Tao,  Hung-Hsuan Teh,  J. Thirman,  C. Titeca,  
 N. Tkachenko,  Hung-Yi Tsai,  T. Tsuchimochi,  N. M. Tubman,  C. Utku,  
 S. P. Veccham,  O. Vydrov,  Z. Wang,  Markus G. S. Weiss,  Rahel Weiss,  
 J. Wenzel,  Jonathan Wong,  J. Witte,  H. Wu,  Yanze Wu,  A. Yamada,  
 Chou-Hsun Yang,  Kun Yao,  S. Yeganeh,  S. R. Yost,  Qi Yu,  A. Zech,  
 F. Zeller,  Chongxiao Zhao,  T. Zhao,  Igor Ying Zhang,  Xing Zhang,  
 Yu Zhang,  Zeyi Zhang,  D. Zuev,  A. Aspuru-Guzik,  A. T. Bell,  
 N. A. Besley,  K. B. Bravaya,  B. R. Brooks,  D. Casanova,  Jeng-Da Chai,  
 Hsing-Ta Chen,  S. Coriani,  C. J. Cramer,  A. E. DePrince, III,  
 R. A. DiStasio Jr.,  A. Dreuw,  B. D. Dunietz,  T. R. Furlani,  
 W. A. Goddard III,  S. Grimme,  S. Hammes-Schiffer,  T. Head-Gordon,  
 W. J. Hehre,  Chao-Ping Hsu,  T.-C. Jagau,  Yousung Jung,  A. Klamt,  
 Jing Kong,  D. S. Lambrecht,  Xiangyuan Li,  WanZhen Liang,  N. J. Mayhall,  
 C. W. McCurdy,  J. B. Neaton,  T. Neudecker,  C. Ochsenfeld,  
 J. A. Parkhill,  R. Peverati,  V. A. Rassolov,  Haisheng Ren,  Yihan Shao,  
 L. V. Slipchenko,  R. P. Steele,  J. E. Subotnik,  A. J. W. Thom,  
 A. Tkatchenko,  D. G. Truhlar,  T. Van Voorhis,  Fan Wang,  
 T. A. Wesolowski,  K. B. Whaley,  H. L. Woodcock III,  P. M. Zimmerman,  
 S. Faraji,  P. M. W. Gill,  M. Head-Gordon,  J. M. Herbert,  A. I. Krylov

 Contributors to earlier versions of Q-Chem not listed above: 
 R. D. Adamson,  B. Austin,  R. Baer,  J. Baker,  G. J. O. Beran,  
 K. Brandhorst,  S. T. Brown,  E. F. C. Byrd,  Arup K. Chakraborty,  
 G. K. L. Chan,  Chun-Min Chang,  Yunqing Chen,  C.-L. Cheng,  
 Siu Hung Chien,  D. M. Chipman,  D. L. Crittenden,  H. Dachsel,  
 R. J. Doerksen,  A. D. Dutoi,  R. G. Edgar,  J. Fosso-Tande,  
 L. Fusti-Molnar,  D. Ghosh,  A. Ghysels,  A. Golubeva-Zadorozhnaya,  
 J. Gonthier,  M. S. Gordon,  S. R. Gwaltney,  G. Hawkins,  J. E. Herr,  
 A. Heyden,  S. Hirata,  E. G. Hohenstein,  G. Kedziora,  F. J. Keil,  
 C. Kelley,  Jihan Kim,  R. A. King,  R. Z. Khaliullin,  P. P. Korambath,  
 W. Kurlancheek,  A. Laurent,  A. M. Lee,  M. S. Lee,  S. V. Levchenko,  
 Ching Yeh Lin,  D. Liotard,  E. Livshits,  R. C. Lochan,  I. Lotan,  
 L. A. Martinez-Martinez,  P. E. Maslen,  N. Nair,  D. P. O'Neill,  
 D. Neuhauser,  E. Neuscamman,  C. M. Oana,  R. Olivares-Amaya,  R. Olson,  
 T. M. Perrine,  B. Peters,  P. A. Pieniazek,  A. Prociuk,  Y. M. Rhee,  
 J. Ritchie,  M. A. Rohrdanz,  E. Rosta,  N. J. Russ,  H. F. Schaefer III,  
 M. W. Schmidt,  N. E. Schultz,  S. Sharma,  N. Shenvi,  C. D. Sherrill,  
 A. C. Simmonett,  A. Sodt,  T. Stein,  D. Stuck,  K. S. Thanthiriwatte,  
 V. Vanovschi,  L. Vogt,  Tao Wang,  A. Warshel,  M. A. Watson,  
 C. F. Williams,  Q. Wu,  X. Xu,  Jun Yang,  W. Zhang,  Yan Zhao

   Please cite Q-Chem as follows:
  "Software for the frontiers of quantum chemistry:
   An overview of developments in the Q-Chem 5 package"
   J. Chem. Phys. 155, 084801 (2021)
   https://doi.org/10.1063/5.0055522 (open access)

 Q-Chem 6.4.0 for Intel X86 EM64T Linux

 Parts of Q-Chem use Armadillo 12.8.2 (Cortisol Injector).
 http://arma.sourceforge.net/

 Q-Chem begins on Thu May 28 21:45:37 2026  

 Host: 
0

 Scratch files written to /tmp/qchem-mfricke-504614/run-6.4-mpi-504614//
 Executable: /opt/local/q-chem/6.4/cpu/exe/qcprog.exe
 Number of threads = 4
 Dec1625 |scratch|qcdevops|jenkins|workspace|build_RNUM -1
 Processing $rem in /opt/local/q-chem/6.4/cpu/config/preferences:
 Processing $rem in /carc/scratch/projects/mfricke/mfricke2016402/test-programs/q-chem/run-6.4-mpi-504614/.qchemrc:
 Symmetry turned off for MBE calculation

 Checking the input file for inconsistencies... 	...done.

--------------------------------------------------------------
User input:
--------------------------------------------------------------
$comment
Q-Chem 6.4 MPI smoke test based on the shipped 4-water MBE-BSSE sample.
$end

$rem
METHOD          B3LYP
BASIS           CC-PVDZ
MANY_BODY_INT   TRUE
THRESH          14
SCF_CONVERGENCE 8
SYM_IGNORE      TRUE
$end

$mbe
ORDER      3
BSSE_TYPE  MBCP
BSSE_ORDER 3
$end

$molecule
0 1
--
0 1
O -1.126149 -1.748387 -0.423240
H -0.234788 -1.493897 -0.661862
H -1.062789 -2.681331 -0.218819
--
0 1
O -0.254210  1.611495 -1.293845
H -1.001520  1.163510 -1.690129
H -0.153399  2.411746 -1.809248
--
0 1
O  1.694541 -0.226287  1.705739
H  0.785920  0.073487  1.677909
H  2.047134  0.150917  2.511706
--
0 1
O -0.864533  0.522472  1.218817
H -0.694120  1.093542  0.469789
H -1.131418 -0.310426  0.829702
$end
--------------------------------------------------------------
 ----------------------------------------------------------------
             Standard Nuclear Orientation (Angstroms)
    I     Atom           X                Y                Z
 ----------------------------------------------------------------
    1      O      -1.1261490000    -1.7483870000    -0.4232400000
    2      H      -0.2347880000    -1.4938970000    -0.6618620000
    3      H      -1.0627890000    -2.6813310000    -0.2188190000
    4      O      -0.2542100000     1.6114950000    -1.2938450000
    5      H      -1.0015200000     1.1635100000    -1.6901290000
    6      H      -0.1533990000     2.4117460000    -1.8092480000
    7      O       1.6945410000    -0.2262870000     1.7057390000
    8      H       0.7859200000     0.0734870000     1.6779090000
    9      H       2.0471340000     0.1509170000     2.5117060000
   10      O      -0.8645330000     0.5224720000     1.2188170000
   11      H      -0.6941200000     1.0935420000     0.4697890000
   12      H      -1.1314180000    -0.3104260000     0.8297020000
 ----------------------------------------------------------------
 Nuclear Repulsion Energy =         135.96955579 hartrees
 There are       20 alpha and       20 beta electrons
 Requested basis set is cc-pVDZ
 There are 48 shells and 96 basis functions

 Total QAlloc Memory Limit   8000 MB
 Mega-Array Size       188 MB
 MEM_STATIC part       192 MB


                       Distance Matrix (Angstroms)
             O (  1)   H (  2)   H (  3)   O (  4)   H (  5)   H (  6)
   H (  2)  0.957199
   H (  3)  0.957177  1.513893
   O (  4)  3.578692  3.169107  4.498648
   H (  5)  3.178000  2.950767  4.117197  0.957185
   H (  6)  4.491544  4.071507  5.412568  0.957186  1.513800
   O (  7)  3.847809  3.306763  4.163416  4.021514  4.553263  4.767519
   H (  8)  3.374916  2.995508  3.821560  3.504092  3.965699  4.302330
   H (  9)  4.721333  4.240768  5.014880  4.680992  5.289145  5.350172
   O ( 10)  2.814533  2.828299  3.517166  2.805697  2.981889  3.639264
   H ( 11)  3.010101  2.861199  3.854836  1.890027  2.182805  2.687759
   H ( 12)  1.907255  2.104593  2.593318  2.995451  2.922141  3.915456
             O (  7)   H (  8)   H (  9)   O ( 10)   H ( 11)
   H (  8)  0.957200
   H (  9)  0.957177  1.513894
   O ( 10)  2.710460  1.770974  3.207401
   H ( 11)  2.995868  2.165776  3.545764  0.957186
   H ( 12)  2.959825  2.131438  3.625627  0.957265  1.513900
 
 ---------------------------------------
  Cycle       Energy         DIIS Error
 ---------------------------------------
    1    -229.2277606594      7.62E-02
 A cutoff of  1.0D-14 yielded   1127 shell pairs
 There are      4503 function pairs (      4888 Cartesian)
 Smallest overlap matrix eigenvalue = 2.60E-02

 Scale SEOQF with 1.000000e-01/1.000000e-01/1.000000e-01

 Standard Electronic Orientation quadrupole field applied
 Nucleus-field energy     =    -0.0000000007 hartrees
 Guess from superposition of atomic densities
 Warning:  Energy on first SCF cycle will be non-variational
    2    -229.0738148087      2.02E-02
 SAD guess density has 40.000000 electrons
	Fragment  1: charge and multip: 0 1, NAlpha NBeta:   5   5
	Fragment  2: charge and multip: 0 1, NAlpha NBeta:   5   5
	Fragment  3: charge and multip: 0 1, NAlpha NBeta:   5   5
	Fragment  4: charge and multip: 0 1, NAlpha NBeta:   5   5
 Created directory /tmp/qchem-mfricke-504614/run-6.4-mpi-504614/xpol_diis
==============================================================
   Many-Body Expansion:  MBE(3)
   Many-Body Correction for BSSE:  MBCP(3)

   Ka Un Lao, John M. Herbert
==============================================================

 ***************************************************
 ***** PERFORMING MANY-BODY ENERGY CALCULATION *****
 ***************************************************

====================================
      3-Body
====================================
 Guess from superposition of atomic densities
 Warning:  Energy on first SCF cycle will be non-variational
 SAD guess density has 30.000000 electrons

                       Distance Matrix (Angstroms)
             O (  1)   H (  2)   H (  3)   O (  4)   H (  5)   H (  6)
   H (  2)  0.957199
   H (  3)  0.957177  1.513893
   O (  4)  3.578692  3.169107  4.498648
   H (  5)  3.178000  2.950767  4.117197  0.957185
   H (  6)  4.491544  4.071507  5.412568  0.957186  1.513800
   O (  7)  3.847809  3.306763  4.163416  4.021514  4.553263  4.767519
   H (  8)  3.374916  2.995508  3.821560  3.504092  3.965699  4.302330
   H (  9)  4.721333  4.240768  5.014880  4.680992  5.289145  5.350172
             O (  7)   H (  8)
   H (  8)  0.957200
   H (  9)  0.957177  1.513894
 
 Applying Cartesian multipole field
    Component          Value
    ---------          -----
     (2,0,0)        1.00000E-11
     (0,2,0)        2.00000E-11
     (0,0,2)       -3.00000E-11
 Nucleus-field energy     =     0.0000000001 hartrees
 Guess from superposition of atomic densities
 Warning:  Energy on first SCF cycle will be non-variational
 SAD guess density has 30.000000 electrons
 A restricted hybrid HF-DFT SCF calculation will be
 performed using Pulay DIIS extrapolation
 Exchange:     0.2000 Hartree-Fock + 0.0800 Slater + 0.7200 B88
 Correlation:  0.1900 VWN1RPA + 0.8100 LYP
 Using SG-1 standard quadrature grid
 SCF converges when DIIS error is below 1.0E-08
 using 4 threads for integral computing
 -------------------------------------------------------
 OpenMP Integral computing Module                
 Release: version 1.0, May 2013, Q-Chem Inc. Pittsburgh 
 -------------------------------------------------------
    3    -228.9831160556      2.48E-02
    4    -229.2677391776      4.99E-04
    5    -229.2678469010      1.13E-04
    6    -229.2678503358      6.98E-05
    7    -229.2678525108      8.42E-06
    8    -229.2678525438      6.20E-07
    9    -229.2678525439      1.58E-07
   10    -229.2678525440      1.08E-07
 ---------------------------------------
  Cycle       Energy         DIIS Error
 ---------------------------------------
    1    -229.2277606594      7.62E-02
   11    -229.2678525440      3.34E-09 Convergence criterion met
 ---------------------------------------
 SCF time:  CPU 4.19 s  wall 1.06 s
 SCF   energy =  -229.26785254
 Total energy =  -229.26785254
 Fragment 0 & 1 & 2 ; Energy = -229.2678525440 Hartree
 Guess from superposition of atomic densities
 Warning:  Energy on first SCF cycle will be non-variational
 SAD guess density has 30.000000 electrons

                       Distance Matrix (Angstroms)
             O (  1)   H (  2)   H (  3)   O (  4)   H (  5)   H (  6)
   H (  2)  0.957199
   H (  3)  0.957177  1.513893
   O (  4)  3.578692  3.169107  4.498648
   H (  5)  3.178000  2.950767  4.117197  0.957185
   H (  6)  4.491544  4.071507  5.412568  0.957186  1.513800
   O (  7)  2.814533  2.828299  3.517166  2.805697  2.981889  3.639264
   H (  8)  3.010101  2.861199  3.854836  1.890027  2.182805  2.687759
   H (  9)  1.907255  2.104593  2.593318  2.995451  2.922141  3.915456
             O (  7)   H (  8)
   H (  8)  0.957186
   H (  9)  0.957265  1.513900
 
 Applying Cartesian multipole field
    Component          Value
    ---------          -----
     (2,0,0)        1.00000E-11
     (0,2,0)        2.00000E-11
     (0,0,2)       -3.00000E-11
 Nucleus-field energy     =     0.0000000017 hartrees
 Guess from superposition of atomic densities
 Warning:  Energy on first SCF cycle will be non-variational
 SAD guess density has 30.000000 electrons
 A restricted hybrid HF-DFT SCF calculation will be
 performed using Pulay DIIS extrapolation
 Exchange:     0.2000 Hartree-Fock + 0.0800 Slater + 0.7200 B88
 Correlation:  0.1900 VWN1RPA + 0.8100 LYP
 Using SG-1 standard quadrature grid
 SCF converges when DIIS error is below 1.0E-08
    2    -229.0738148087      2.02E-02
 ---------------------------------------
  Cycle       Energy         DIIS Error
 ---------------------------------------
    1    -229.2932757027      7.74E-02
    3    -228.9831160556      2.48E-02
    2    -229.1066394906      1.93E-02
    4    -229.2677391776      4.99E-04
    3    -229.0255026263      2.36E-02
    5    -229.2678469010      1.13E-04
    4    -229.2829967045      5.21E-04
    6    -229.2678503358      6.98E-05
    5    -229.2830806577      3.20E-04
    7    -229.2678525108      8.42E-06
    6    -229.2831224670      1.02E-04
    8    -229.2678525438      6.20E-07
    7    -229.2831271657      6.10E-06
    9    -229.2678525439      1.58E-07
    8    -229.2831271830      1.67E-06
   10    -229.2678525440      1.08E-07
    9    -229.2831271841      5.15E-07
   11    -229.2678525440      3.34E-09 Convergence criterion met
 ---------------------------------------
 SCF time:  CPU 4.47 s  wall 1.66 s
 SCF   energy =  -229.26785254
 Total energy =  -229.26785254
 Fragment 0 & 1 & 2 ; Energy = -229.2678525440 Hartree
 Guess from superposition of atomic densities
 Warning:  Energy on first SCF cycle will be non-variational
 SAD guess density has 30.000000 electrons

                       Distance Matrix (Angstroms)
             O (  1)   H (  2)   H (  3)   O (  4)   H (  5)   H (  6)
   H (  2)  0.957199
   H (  3)  0.957177  1.513893
   O (  4)  3.578692  3.169107  4.498648
   H (  5)  3.178000  2.950767  4.117197  0.957185
   H (  6)  4.491544  4.071507  5.412568  0.957186  1.513800
   O (  7)  2.814533  2.828299  3.517166  2.805697  2.981889  3.639264
   H (  8)  3.010101  2.861199  3.854836  1.890027  2.182805  2.687759
   H (  9)  1.907255  2.104593  2.593318  2.995451  2.922141  3.915456
             O (  7)   H (  8)
   H (  8)  0.957186
   H (  9)  0.957265  1.513900
 
 Applying Cartesian multipole field
    Component          Value
    ---------          -----
     (2,0,0)        1.00000E-11
     (0,2,0)        2.00000E-11
     (0,0,2)       -3.00000E-11
 Nucleus-field energy     =     0.0000000017 hartrees
 Guess from superposition of atomic densities
 Warning:  Energy on first SCF cycle will be non-variational
 SAD guess density has 30.000000 electrons
 A restricted hybrid HF-DFT SCF calculation will be
 performed using Pulay DIIS extrapolation
 Exchange:     0.2000 Hartree-Fock + 0.0800 Slater + 0.7200 B88
 Correlation:  0.1900 VWN1RPA + 0.8100 LYP
 Using SG-1 standard quadrature grid
 SCF converges when DIIS error is below 1.0E-08
   10    -229.2831271843      6.46E-08
 ---------------------------------------
  Cycle       Energy         DIIS Error
 ---------------------------------------
    1    -229.2932757027      7.74E-02
   11    -229.2831271843      5.79E-09 Convergence criterion met
 ---------------------------------------
 SCF time:  CPU 4.23 s  wall 1.06 s
 SCF   energy =  -229.28312718
 Total energy =  -229.28312718
 Fragment 0 & 1 & 3 ; Energy = -229.2831271843 Hartree
 Guess from superposition of atomic densities
 Warning:  Energy on first SCF cycle will be non-variational
 SAD guess density has 30.000000 electrons

                       Distance Matrix (Angstroms)
             O (  1)   H (  2)   H (  3)   O (  4)   H (  5)   H (  6)
   H (  2)  0.957199
   H (  3)  0.957177  1.513893
   O (  4)  3.847809  3.306763  4.163416
   H (  5)  3.374916  2.995508  3.821560  0.957200
   H (  6)  4.721333  4.240768  5.014880  0.957177  1.513894
   O (  7)  2.814533  2.828299  3.517166  2.710460  1.770974  3.207401
   H (  8)  3.010101  2.861199  3.854836  2.995868  2.165776  3.545764
   H (  9)  1.907255  2.104593  2.593318  2.959825  2.131438  3.625627
             O (  7)   H (  8)
   H (  8)  0.957186
   H (  9)  0.957265  1.513900
 
 Applying Cartesian multipole field
    Component          Value
    ---------          -----
     (2,0,0)        1.00000E-11
     (0,2,0)        2.00000E-11
     (0,0,2)       -3.00000E-11
 Nucleus-field energy     =    -0.0000000007 hartrees
 Guess from superposition of atomic densities
 Warning:  Energy on first SCF cycle will be non-variational
 SAD guess density has 30.000000 electrons
 A restricted hybrid HF-DFT SCF calculation will be
 performed using Pulay DIIS extrapolation
 Exchange:     0.2000 Hartree-Fock + 0.0800 Slater + 0.7200 B88
 Correlation:  0.1900 VWN1RPA + 0.8100 LYP
 Using SG-1 standard quadrature grid
 SCF converges when DIIS error is below 1.0E-08
    2    -229.1066394906      1.93E-02
 ---------------------------------------
  Cycle       Energy         DIIS Error
 ---------------------------------------
    1    -229.3079082272      7.78E-02
    3    -229.0255026263      2.36E-02
    2    -229.1174102383      1.92E-02
    4    -229.2829967045      5.21E-04
    3    -229.0406365668      2.32E-02
    5    -229.2830806577      3.20E-04
    4    -229.2895066422      6.11E-04
    6    -229.2831224670      1.02E-04
    5    -229.2896029716      4.10E-04
    7    -229.2831271657      6.10E-06
    6    -229.2896763322      7.81E-05
    8    -229.2831271830      1.67E-06
    7    -229.2896790579      6.37E-06
    9    -229.2831271841      5.15E-07
    8    -229.2896790693      4.18E-06
   10    -229.2831271843      6.46E-08
    9    -229.2896790773      4.18E-07
   11    -229.2831271843      5.79E-09 Convergence criterion met
 ---------------------------------------
 SCF time:  CPU 4.31 s  wall 1.11 s
 SCF   energy =  -229.28312718
 Total energy =  -229.28312718
 Fragment 0 & 1 & 3 ; Energy = -229.2831271843 Hartree
   10    -229.2896790773      5.87E-08
 Guess from superposition of atomic densities
 Warning:  Energy on first SCF cycle will be non-variational
 SAD guess density has 30.000000 electrons

                       Distance Matrix (Angstroms)
             O (  1)   H (  2)   H (  3)   O (  4)   H (  5)   H (  6)
   H (  2)  0.957199
   H (  3)  0.957177  1.513893
   O (  4)  3.847809  3.306763  4.163416
   H (  5)  3.374916  2.995508  3.821560  0.957200
   H (  6)  4.721333  4.240768  5.014880  0.957177  1.513894
   O (  7)  2.814533  2.828299  3.517166  2.710460  1.770974  3.207401
   H (  8)  3.010101  2.861199  3.854836  2.995868  2.165776  3.545764
   H (  9)  1.907255  2.104593  2.593318  2.959825  2.131438  3.625627
             O (  7)   H (  8)
   H (  8)  0.957186
   H (  9)  0.957265  1.513900
 
 Applying Cartesian multipole field
    Component          Value
    ---------          -----
     (2,0,0)        1.00000E-11
     (0,2,0)        2.00000E-11
     (0,0,2)       -3.00000E-11
 Nucleus-field energy     =    -0.0000000007 hartrees
 Guess from superposition of atomic densities
 Warning:  Energy on first SCF cycle will be non-variational
 SAD guess density has 30.000000 electrons
 A restricted hybrid HF-DFT SCF calculation will be
 performed using Pulay DIIS extrapolation
 Exchange:     0.2000 Hartree-Fock + 0.0800 Slater + 0.7200 B88
 Correlation:  0.1900 VWN1RPA + 0.8100 LYP
 Using SG-1 standard quadrature grid
 SCF converges when DIIS error is below 1.0E-08
 ---------------------------------------
  Cycle       Energy         DIIS Error
 ---------------------------------------
    1    -229.3079082272      7.78E-02
   11    -229.2896790773      3.94E-09 Convergence criterion met
 ---------------------------------------
 SCF time:  CPU 4.16 s  wall 1.05 s
 SCF   energy =  -229.28967908
 Total energy =  -229.28967908
 Fragment 0 & 2 & 3 ; Energy = -229.2896790773 Hartree
 Guess from superposition of atomic densities
 Warning:  Energy on first SCF cycle will be non-variational
 SAD guess density has 30.000000 electrons

                       Distance Matrix (Angstroms)
             O (  1)   H (  2)   H (  3)   O (  4)   H (  5)   H (  6)
   H (  2)  0.957185
   H (  3)  0.957186  1.513800
   O (  4)  4.021514  4.553263  4.767519
   H (  5)  3.504092  3.965699  4.302330  0.957200
   H (  6)  4.680992  5.289145  5.350172  0.957177  1.513894
   O (  7)  2.805697  2.981889  3.639264  2.710460  1.770974  3.207401
   H (  8)  1.890027  2.182805  2.687759  2.995868  2.165776  3.545764
   H (  9)  2.995451  2.922141  3.915456  2.959825  2.131438  3.625627
             O (  7)   H (  8)
   H (  8)  0.957186
   H (  9)  0.957265  1.513900
 
 Applying Cartesian multipole field
    Component          Value
    ---------          -----
     (2,0,0)        1.00000E-11
     (0,2,0)        2.00000E-11
     (0,0,2)       -3.00000E-11
 Nucleus-field energy     =    -0.0000000033 hartrees
 Guess from superposition of atomic densities
 Warning:  Energy on first SCF cycle will be non-variational
 SAD guess density has 30.000000 electrons
 A restricted hybrid HF-DFT SCF calculation will be
 performed using Pulay DIIS extrapolation
 Exchange:     0.2000 Hartree-Fock + 0.0800 Slater + 0.7200 B88
 Correlation:  0.1900 VWN1RPA + 0.8100 LYP
 Using SG-1 standard quadrature grid
 SCF converges when DIIS error is below 1.0E-08
    2    -229.1174102383      1.92E-02
 ---------------------------------------
  Cycle       Energy         DIIS Error
 ---------------------------------------
    1    -229.3069665692      7.78E-02
    3    -229.0406365668      2.32E-02
    2    -229.1086648479      1.93E-02
    4    -229.2895066422      6.11E-04
    3    -229.0306873867      2.34E-02
    5    -229.2896029716      4.10E-04
    4    -229.2844711000      6.07E-04
    5    -229.2845684309      4.01E-04
    6    -229.2896763322      7.81E-05
    6    -229.2846383745      8.22E-05
    7    -229.2896790579      6.37E-06
    7    -229.2846413821      7.50E-06
    8    -229.2896790693      4.18E-06
    8    -229.2846413946      5.60E-06
    9    -229.2896790773      4.18E-07
    9    -229.2846414088      4.61E-07
   10    -229.2896790773      5.87E-08
   10    -229.2846414089      5.64E-08
   11    -229.2896790773      3.94E-09 Convergence criterion met
 ---------------------------------------
 SCF time:  CPU 4.33 s  wall 1.11 s
 SCF   energy =  -229.28967908
 Total energy =  -229.28967908
 Fragment 0 & 2 & 3 ; Energy = -229.2896790773 Hartree
 Guess from superposition of atomic densities
 Warning:  Energy on first SCF cycle will be non-variational
 SAD guess density has 30.000000 electrons

                       Distance Matrix (Angstroms)
             O (  1)   H (  2)   H (  3)   O (  4)   H (  5)   H (  6)
   H (  2)  0.957185
   H (  3)  0.957186  1.513800
   O (  4)  4.021514  4.553263  4.767519
   H (  5)  3.504092  3.965699  4.302330  0.957200
   H (  6)  4.680992  5.289145  5.350172  0.957177  1.513894
   O (  7)  2.805697  2.981889  3.639264  2.710460  1.770974  3.207401
   H (  8)  1.890027  2.182805  2.687759  2.995868  2.165776  3.545764
   H (  9)  2.995451  2.922141  3.915456  2.959825  2.131438  3.625627
             O (  7)   H (  8)
   H (  8)  0.957186
   H (  9)  0.957265  1.513900
 
 Applying Cartesian multipole field
    Component          Value
    ---------          -----
     (2,0,0)        1.00000E-11
     (0,2,0)        2.00000E-11
     (0,0,2)       -3.00000E-11
 Nucleus-field energy     =    -0.0000000033 hartrees
 Guess from superposition of atomic densities
 Warning:  Energy on first SCF cycle will be non-variational
 SAD guess density has 30.000000 electrons
 A restricted hybrid HF-DFT SCF calculation will be
 performed using Pulay DIIS extrapolation
 Exchange:     0.2000 Hartree-Fock + 0.0800 Slater + 0.7200 B88
 Correlation:  0.1900 VWN1RPA + 0.8100 LYP
 Using SG-1 standard quadrature grid
 SCF converges when DIIS error is below 1.0E-08
   11    -229.2846414089      3.57E-09 Convergence criterion met
 ---------------------------------------
 SCF time:  CPU 4.18 s  wall 1.05 s
 SCF   energy =  -229.28464141
 Total energy =  -229.28464141
 Fragment 1 & 2 & 3 ; Energy = -229.2846414089 Hartree
====================================
      2-Body
====================================
 Guess from superposition of atomic densities
 Warning:  Energy on first SCF cycle will be non-variational
 SAD guess density has 20.000000 electrons

                       Distance Matrix (Angstroms)
             O (  1)   H (  2)   H (  3)   O (  4)   H (  5)
   H (  2)  0.957199
   H (  3)  0.957177  1.513893
   O (  4)  3.578692  3.169107  4.498648
   H (  5)  3.178000  2.950767  4.117197  0.957185
   H (  6)  4.491544  4.071507  5.412568  0.957186  1.513800
 
 Applying Cartesian multipole field
    Component          Value
    ---------          -----
     (2,0,0)        1.00000E-11
     (0,2,0)        2.00000E-11
     (0,0,2)       -3.00000E-11
 Nucleus-field energy     =     0.0000000026 hartrees
 Guess from superposition of atomic densities
 Warning:  Energy on first SCF cycle will be non-variational
 SAD guess density has 20.000000 electrons
 A restricted hybrid HF-DFT SCF calculation will be
 performed using Pulay DIIS extrapolation
 Exchange:     0.2000 Hartree-Fock + 0.0800 Slater + 0.7200 B88
 Correlation:  0.1900 VWN1RPA + 0.8100 LYP
 Using SG-1 standard quadrature grid
 SCF converges when DIIS error is below 1.0E-08
 ---------------------------------------
  Cycle       Energy         DIIS Error
 ---------------------------------------
    1    -229.3069665692      7.78E-02
 ---------------------------------------
  Cycle       Energy         DIIS Error
 ---------------------------------------
    1    -152.8183770303      9.34E-02
    2    -152.7129916643      2.48E-02
    2    -229.1086648479      1.93E-02
    3    -152.6522365657      3.05E-02
    3    -229.0306873867      2.34E-02
    4    -152.8435876463      6.09E-04
    5    -152.8436604297      1.12E-04
    4    -229.2844711000      6.07E-04
    6    -152.8436626655      2.75E-05
    5    -229.2845684309      4.01E-04
    7    -152.8436627697      1.58E-05
    8    -152.8436628201      5.60E-07
    6    -229.2846383745      8.22E-05
    9    -152.8436628201      1.28E-07
    7    -229.2846413821      7.50E-06
   10    -152.8436628201      4.96E-09 Convergence criterion met
 ---------------------------------------
 SCF time:  CPU 2.59 s  wall 0.65 s
 SCF   energy =  -152.84366282
 Total energy =  -152.84366282
 Fragment 0 & 1 ; Energy = -152.8436628201 Hartree
 Guess from superposition of atomic densities
 Warning:  Energy on first SCF cycle will be non-variational
 SAD guess density has 20.000000 electrons

                       Distance Matrix (Angstroms)
             O (  1)   H (  2)   H (  3)   O (  4)   H (  5)
   H (  2)  0.957199
   H (  3)  0.957177  1.513893
   O (  4)  3.847809  3.306763  4.163416
   H (  5)  3.374916  2.995508  3.821560  0.957200
   H (  6)  4.721333  4.240768  5.014880  0.957177  1.513894
 
 Applying Cartesian multipole field
    Component          Value
    ---------          -----
     (2,0,0)        1.00000E-11
     (0,2,0)        2.00000E-11
     (0,0,2)       -3.00000E-11
 Nucleus-field energy     =     0.0000000002 hartrees
 Guess from superposition of atomic densities
 Warning:  Energy on first SCF cycle will be non-variational
 SAD guess density has 20.000000 electrons
 A restricted hybrid HF-DFT SCF calculation will be
 performed using Pulay DIIS extrapolation
 Exchange:     0.2000 Hartree-Fock + 0.0800 Slater + 0.7200 B88
 Correlation:  0.1900 VWN1RPA + 0.8100 LYP
 Using SG-1 standard quadrature grid
 SCF converges when DIIS error is below 1.0E-08
 ---------------------------------------
  Cycle       Energy         DIIS Error
 ---------------------------------------
    1    -152.8180054387      9.34E-02
    8    -229.2846413946      5.60E-06
    2    -152.7141288314      2.48E-02
    9    -229.2846414088      4.61E-07
    3    -152.6539865364      3.04E-02
    4    -152.8439709837      6.22E-04
   10    -229.2846414089      5.64E-08
    5    -152.8440445152      1.57E-04
    6    -152.8440471523      1.05E-04
   11    -229.2846414089      3.57E-09 Convergence criterion met
 ---------------------------------------
 SCF time:  CPU 4.27 s  wall 1.10 s
 SCF   energy =  -229.28464141
 Total energy =  -229.28464141
 Fragment 1 & 2 & 3 ; Energy = -229.2846414089 Hartree
====================================
      2-Body
====================================
 Guess from superposition of atomic densities
 Warning:  Energy on first SCF cycle will be non-variational
 SAD guess density has 20.000000 electrons

                       Distance Matrix (Angstroms)
             O (  1)   H (  2)   H (  3)   O (  4)   H (  5)
   H (  2)  0.957199
   H (  3)  0.957177  1.513893
   O (  4)  3.578692  3.169107  4.498648
   H (  5)  3.178000  2.950767  4.117197  0.957185
   H (  6)  4.491544  4.071507  5.412568  0.957186  1.513800
 
 Applying Cartesian multipole field
    Component          Value
    ---------          -----
     (2,0,0)        1.00000E-11
     (0,2,0)        2.00000E-11
     (0,0,2)       -3.00000E-11
 Nucleus-field energy     =     0.0000000026 hartrees
 Guess from superposition of atomic densities
 Warning:  Energy on first SCF cycle will be non-variational
 SAD guess density has 20.000000 electrons
 A restricted hybrid HF-DFT SCF calculation will be
 performed using Pulay DIIS extrapolation
 Exchange:     0.2000 Hartree-Fock + 0.0800 Slater + 0.7200 B88
 Correlation:  0.1900 VWN1RPA + 0.8100 LYP
 Using SG-1 standard quadrature grid
 SCF converges when DIIS error is below 1.0E-08
    7    -152.8440493384      9.41E-06
 ---------------------------------------
  Cycle       Energy         DIIS Error
 ---------------------------------------
    1    -152.8183770303      9.34E-02
    8    -152.8440493569      3.19E-07
    2    -152.7129916643      2.48E-02
    9    -152.8440493569      1.14E-07
    3    -152.6522365657      3.05E-02
   10    -152.8440493569      4.68E-09 Convergence criterion met
 ---------------------------------------
 SCF time:  CPU 2.58 s  wall 0.65 s
 SCF   energy =  -152.84404936
 Total energy =  -152.84404936
 Fragment 0 & 2 ; Energy = -152.8440493569 Hartree
 Guess from superposition of atomic densities
 Warning:  Energy on first SCF cycle will be non-variational
 SAD guess density has 20.000000 electrons

                       Distance Matrix (Angstroms)
             O (  1)   H (  2)   H (  3)   O (  4)   H (  5)
   H (  2)  0.957199
   H (  3)  0.957177  1.513893
   O (  4)  2.814533  2.828299  3.517166
   H (  5)  3.010101  2.861199  3.854836  0.957186
   H (  6)  1.907255  2.104593  2.593318  0.957265  1.513900
 
 Applying Cartesian multipole field
    Component          Value
    ---------          -----
     (2,0,0)        1.00000E-11
     (0,2,0)        2.00000E-11
     (0,0,2)       -3.00000E-11
 Nucleus-field energy     =     0.0000000018 hartrees
 Guess from superposition of atomic densities
 Warning:  Energy on first SCF cycle will be non-variational
 SAD guess density has 20.000000 electrons
 A restricted hybrid HF-DFT SCF calculation will be
 performed using Pulay DIIS extrapolation
 Exchange:     0.2000 Hartree-Fock + 0.0800 Slater + 0.7200 B88
 Correlation:  0.1900 VWN1RPA + 0.8100 LYP
 Using SG-1 standard quadrature grid
 SCF converges when DIIS error is below 1.0E-08
    4    -152.8435876463      6.09E-04
 ---------------------------------------
  Cycle       Energy         DIIS Error
 ---------------------------------------
    1    -152.8506779434      9.45E-02
    5    -152.8436604297      1.12E-04
    2    -152.7303684273      2.40E-02
    6    -152.8436626655      2.75E-05
    3    -152.6732305434      2.95E-02
    7    -152.8436627697      1.58E-05
    4    -152.8520699207      6.00E-04
    8    -152.8436628201      5.60E-07
    5    -152.8521312263      2.61E-04
    9    -152.8436628201      1.28E-07
    6    -152.8521409746      1.42E-04
   10    -152.8436628201      4.96E-09 Convergence criterion met
 ---------------------------------------
 SCF time:  CPU 2.74 s  wall 0.71 s
 SCF   energy =  -152.84366282
 Total energy =  -152.84366282
 Fragment 0 & 1 ; Energy = -152.8436628201 Hartree
 Guess from superposition of atomic densities
 Warning:  Energy on first SCF cycle will be non-variational
 SAD guess density has 20.000000 electrons

                       Distance Matrix (Angstroms)
             O (  1)   H (  2)   H (  3)   O (  4)   H (  5)
   H (  2)  0.957199
   H (  3)  0.957177  1.513893
   O (  4)  3.847809  3.306763  4.163416
   H (  5)  3.374916  2.995508  3.821560  0.957200
   H (  6)  4.721333  4.240768  5.014880  0.957177  1.513894
 
 Applying Cartesian multipole field
    Component          Value
    ---------          -----
     (2,0,0)        1.00000E-11
     (0,2,0)        2.00000E-11
     (0,0,2)       -3.00000E-11
 Nucleus-field energy     =     0.0000000002 hartrees
 Guess from superposition of atomic densities
 Warning:  Energy on first SCF cycle will be non-variational
 SAD guess density has 20.000000 electrons
 A restricted hybrid HF-DFT SCF calculation will be
 performed using Pulay DIIS extrapolation
 Exchange:     0.2000 Hartree-Fock + 0.0800 Slater + 0.7200 B88
 Correlation:  0.1900 VWN1RPA + 0.8100 LYP
 Using SG-1 standard quadrature grid
 SCF converges when DIIS error is below 1.0E-08
    7    -152.8521450339      7.99E-06
 ---------------------------------------
  Cycle       Energy         DIIS Error
 ---------------------------------------
    1    -152.8180054387      9.34E-02
    8    -152.8521450478      8.51E-07
    9    -152.8521450479      1.20E-07
    2    -152.7141288314      2.48E-02
   10    -152.8521450479      1.11E-08
    3    -152.6539865364      3.04E-02
   11    -152.8521450479      1.59E-09 Convergence criterion met
 ---------------------------------------
 SCF time:  CPU 2.93 s  wall 0.74 s
 SCF   energy =  -152.85214505
 Total energy =  -152.85214505
 Fragment 0 & 3 ; Energy = -152.8521450479 Hartree
    4    -152.8439709837      6.22E-04
 Guess from superposition of atomic densities
 Warning:  Energy on first SCF cycle will be non-variational
 SAD guess density has 20.000000 electrons

                       Distance Matrix (Angstroms)
             O (  1)   H (  2)   H (  3)   O (  4)   H (  5)
   H (  2)  0.957185
   H (  3)  0.957186  1.513800
   O (  4)  4.021514  4.553263  4.767519
   H (  5)  3.504092  3.965699  4.302330  0.957200
   H (  6)  4.680992  5.289145  5.350172  0.957177  1.513894
 
 Applying Cartesian multipole field
    Component          Value
    ---------          -----
     (2,0,0)        1.00000E-11
     (0,2,0)        2.00000E-11
     (0,0,2)       -3.00000E-11
 Nucleus-field energy     =    -0.0000000025 hartrees
 Guess from superposition of atomic densities
 Warning:  Energy on first SCF cycle will be non-variational
 SAD guess density has 20.000000 electrons
 A restricted hybrid HF-DFT SCF calculation will be
 performed using Pulay DIIS extrapolation
 Exchange:     0.2000 Hartree-Fock + 0.0800 Slater + 0.7200 B88
 Correlation:  0.1900 VWN1RPA + 0.8100 LYP
 Using SG-1 standard quadrature grid
 SCF converges when DIIS error is below 1.0E-08
 ---------------------------------------
  Cycle       Energy         DIIS Error
 ---------------------------------------
    1    -152.8173464669      9.33E-02
    5    -152.8440445152      1.57E-04
    2    -152.7090097709      2.50E-02
    6    -152.8440471523      1.05E-04
    3    -152.6479299692      3.06E-02
    7    -152.8440493384      9.41E-06
    4    -152.8412934482      6.24E-04
    8    -152.8440493569      3.19E-07
    5    -152.8413696503      1.18E-04
    9    -152.8440493569      1.14E-07
    6    -152.8413719816      3.91E-05
   10    -152.8440493569      4.68E-09 Convergence criterion met
 ---------------------------------------
 SCF time:  CPU 2.72 s  wall 0.71 s
 SCF   energy =  -152.84404936
 Total energy =  -152.84404936
 Fragment 0 & 2 ; Energy = -152.8440493569 Hartree
 Guess from superposition of atomic densities
 Warning:  Energy on first SCF cycle will be non-variational
 SAD guess density has 20.000000 electrons

                       Distance Matrix (Angstroms)
             O (  1)   H (  2)   H (  3)   O (  4)   H (  5)
   H (  2)  0.957199
   H (  3)  0.957177  1.513893
   O (  4)  2.814533  2.828299  3.517166
   H (  5)  3.010101  2.861199  3.854836  0.957186
   H (  6)  1.907255  2.104593  2.593318  0.957265  1.513900
 
 Applying Cartesian multipole field
    Component          Value
    ---------          -----
     (2,0,0)        1.00000E-11
     (0,2,0)        2.00000E-11
     (0,0,2)       -3.00000E-11
 Nucleus-field energy     =     0.0000000018 hartrees
 Guess from superposition of atomic densities
 Warning:  Energy on first SCF cycle will be non-variational
 SAD guess density has 20.000000 electrons
 A restricted hybrid HF-DFT SCF calculation will be
 performed using Pulay DIIS extrapolation
 Exchange:     0.2000 Hartree-Fock + 0.0800 Slater + 0.7200 B88
 Correlation:  0.1900 VWN1RPA + 0.8100 LYP
 Using SG-1 standard quadrature grid
 SCF converges when DIIS error is below 1.0E-08
    7    -152.8413722468      1.48E-05
 ---------------------------------------
  Cycle       Energy         DIIS Error
 ---------------------------------------
    1    -152.8506779434      9.45E-02
    8    -152.8413722913      3.67E-07
    9    -152.8413722913      1.19E-07
    2    -152.7303684273      2.40E-02
   10    -152.8413722913      5.95E-09 Convergence criterion met
 ---------------------------------------
 SCF time:  CPU 2.55 s  wall 0.64 s
 SCF   energy =  -152.84137229
 Total energy =  -152.84137229
 Fragment 1 & 2 ; Energy = -152.8413722913 Hartree
 Guess from superposition of atomic densities
 Warning:  Energy on first SCF cycle will be non-variational
 SAD guess density has 20.000000 electrons

                       Distance Matrix (Angstroms)
             O (  1)   H (  2)   H (  3)   O (  4)   H (  5)
   H (  2)  0.957185
   H (  3)  0.957186  1.513800
   O (  4)  2.805697  2.981889  3.639264
   H (  5)  1.890027  2.182805  2.687759  0.957186
   H (  6)  2.995451  2.922141  3.915456  0.957265  1.513900
 
 Applying Cartesian multipole field
    Component          Value
    ---------          -----
    3    -152.6732305434      2.95E-02
     (2,0,0)        1.00000E-11
     (0,2,0)        2.00000E-11
     (0,0,2)       -3.00000E-11
 Nucleus-field energy     =    -0.0000000009 hartrees
 Guess from superposition of atomic densities
 Warning:  Energy on first SCF cycle will be non-variational
 SAD guess density has 20.000000 electrons
 A restricted hybrid HF-DFT SCF calculation will be
 performed using Pulay DIIS extrapolation
 Exchange:     0.2000 Hartree-Fock + 0.0800 Slater + 0.7200 B88
 Correlation:  0.1900 VWN1RPA + 0.8100 LYP
 Using SG-1 standard quadrature grid
 SCF converges when DIIS error is below 1.0E-08
 ---------------------------------------
  Cycle       Energy         DIIS Error
 ---------------------------------------
    1    -152.8502651020      9.44E-02
    4    -152.8520699207      6.00E-04
    2    -152.7273989533      2.41E-02
    5    -152.8521312263      2.61E-04
    3    -152.6707574424      2.95E-02
    6    -152.8521409746      1.42E-04
    4    -152.8503938390      6.01E-04
    7    -152.8521450339      7.99E-06
    5    -152.8504530578      2.86E-04
    8    -152.8521450478      8.51E-07
    6    -152.8504656611      1.38E-04
    9    -152.8521450479      1.20E-07
    7    -152.8504694980      8.18E-06
   10    -152.8521450479      1.11E-08
    8    -152.8504695123      9.87E-07
   11    -152.8521450479      1.59E-09 Convergence criterion met
 ---------------------------------------
 SCF time:  CPU 3.04 s  wall 0.79 s
 SCF   energy =  -152.85214505
 Total energy =  -152.85214505
 Fragment 0 & 3 ; Energy = -152.8521450479 Hartree
 Guess from superposition of atomic densities
 Warning:  Energy on first SCF cycle will be non-variational
 SAD guess density has 20.000000 electrons

                       Distance Matrix (Angstroms)
             O (  1)   H (  2)   H (  3)   O (  4)   H (  5)
   H (  2)  0.957185
   H (  3)  0.957186  1.513800
   O (  4)  4.021514  4.553263  4.767519
   H (  5)  3.504092  3.965699  4.302330  0.957200
   H (  6)  4.680992  5.289145  5.350172  0.957177  1.513894
 
 Applying Cartesian multipole field
    Component          Value
    ---------          -----
     (2,0,0)        1.00000E-11
     (0,2,0)        2.00000E-11
     (0,0,2)       -3.00000E-11
 Nucleus-field energy     =    -0.0000000025 hartrees
 Guess from superposition of atomic densities
 Warning:  Energy on first SCF cycle will be non-variational
 SAD guess density has 20.000000 electrons
 A restricted hybrid HF-DFT SCF calculation will be
 performed using Pulay DIIS extrapolation
 Exchange:     0.2000 Hartree-Fock + 0.0800 Slater + 0.7200 B88
 Correlation:  0.1900 VWN1RPA + 0.8100 LYP
 Using SG-1 standard quadrature grid
 SCF converges when DIIS error is below 1.0E-08
    9    -152.8504695125      1.02E-07
 ---------------------------------------
  Cycle       Energy         DIIS Error
 ---------------------------------------
    1    -152.8173464669      9.33E-02
   10    -152.8504695125      9.49E-09 Convergence criterion met
 ---------------------------------------
 SCF time:  CPU 2.65 s  wall 0.67 s
 SCF   energy =  -152.85046951
 Total energy =  -152.85046951
 Fragment 1 & 3 ; Energy = -152.8504695125 Hartree
 Guess from superposition of atomic densities
 Warning:  Energy on first SCF cycle will be non-variational
 SAD guess density has 20.000000 electrons

                       Distance Matrix (Angstroms)
             O (  1)   H (  2)   H (  3)   O (  4)   H (  5)
   H (  2)  0.957200
   H (  3)  0.957177  1.513894
   O (  4)  2.710460  1.770974  3.207401
   H (  5)  2.995868  2.165776  3.545764  0.957186
   H (  6)  2.959825  2.131438  3.625627  0.957265  1.513900
 
 Applying Cartesian multipole field
    Component          Value
    ---------          -----
     (2,0,0)        1.00000E-11
     (0,2,0)        2.00000E-11
     (0,0,2)       -3.00000E-11
 Nucleus-field energy     =    -0.0000000033 hartrees
 Guess from superposition of atomic densities
 Warning:  Energy on first SCF cycle will be non-variational
 SAD guess density has 20.000000 electrons
 A restricted hybrid HF-DFT SCF calculation will be
 performed using Pulay DIIS extrapolation
 Exchange:     0.2000 Hartree-Fock + 0.0800 Slater + 0.7200 B88
 Correlation:  0.1900 VWN1RPA + 0.8100 LYP
 Using SG-1 standard quadrature grid
 SCF converges when DIIS error is below 1.0E-08
    2    -152.7090097709      2.50E-02
 ---------------------------------------
  Cycle       Energy         DIIS Error
 ---------------------------------------
    1    -152.8652669937      9.51E-02
    3    -152.6479299692      3.06E-02
    2    -152.7333984445      2.39E-02
    4    -152.8412934482      6.24E-04
    3    -152.6832020656      2.88E-02
    5    -152.8413696503      1.18E-04
    4    -152.8526491221      7.37E-04
    6    -152.8413719816      3.91E-05
    5    -152.8527111742      4.94E-04
    7    -152.8413722468      1.48E-05
    6    -152.8527579469      1.14E-04
    8    -152.8413722913      3.67E-07
    7    -152.8527605629      6.95E-06
    9    -152.8413722913      1.19E-07
    8    -152.8527605733      2.77E-07
   10    -152.8413722913      5.95E-09 Convergence criterion met
 ---------------------------------------
 SCF time:  CPU 2.59 s  wall 0.67 s
 SCF   energy =  -152.84137229
 Total energy =  -152.84137229
 Fragment 1 & 2 ; Energy = -152.8413722913 Hartree
 Guess from superposition of atomic densities
 Warning:  Energy on first SCF cycle will be non-variational
 SAD guess density has 20.000000 electrons

                       Distance Matrix (Angstroms)
             O (  1)   H (  2)   H (  3)   O (  4)   H (  5)
   H (  2)  0.957185
   H (  3)  0.957186  1.513800
   O (  4)  2.805697  2.981889  3.639264
   H (  5)  1.890027  2.182805  2.687759  0.957186
   H (  6)  2.995451  2.922141  3.915456  0.957265  1.513900
 
 Applying Cartesian multipole field
    Component          Value
    ---------          -----
     (2,0,0)        1.00000E-11
     (0,2,0)        2.00000E-11
     (0,0,2)       -3.00000E-11
 Nucleus-field energy     =    -0.0000000009 hartrees
 Guess from superposition of atomic densities
 Warning:  Energy on first SCF cycle will be non-variational
 SAD guess density has 20.000000 electrons
 A restricted hybrid HF-DFT SCF calculation will be
 performed using Pulay DIIS extrapolation
 Exchange:     0.2000 Hartree-Fock + 0.0800 Slater + 0.7200 B88
 Correlation:  0.1900 VWN1RPA + 0.8100 LYP
 Using SG-1 standard quadrature grid
 SCF converges when DIIS error is below 1.0E-08
    9    -152.8527605733      8.67E-08
 ---------------------------------------
  Cycle       Energy         DIIS Error
 ---------------------------------------
    1    -152.8502651020      9.44E-02
   10    -152.8527605733      8.87E-09 Convergence criterion met
 ---------------------------------------
 SCF time:  CPU 2.67 s  wall 0.67 s
 SCF   energy =  -152.85276057
 Total energy =  -152.85276057
 Fragment 2 & 3 ; Energy = -152.8527605733 Hartree
====================================
      1-Body
====================================
 Guess from superposition of atomic densities
 Warning:  Energy on first SCF cycle will be non-variational
 SAD guess density has 10.000000 electrons

                       Distance Matrix (Angstroms)
             O (  1)   H (  2)
   H (  2)  0.957199
   H (  3)  0.957177  1.513893
 
 Applying Cartesian multipole field
    Component          Value
    ---------          -----
     (2,0,0)        1.00000E-11
     (0,2,0)        2.00000E-11
     (0,0,2)       -3.00000E-11
 Nucleus-field energy     =     0.0000000026 hartrees
 Guess from superposition of atomic densities
 Warning:  Energy on first SCF cycle will be non-variational
 SAD guess density has 10.000000 electrons
 A restricted hybrid HF-DFT SCF calculation will be
 performed using Pulay DIIS extrapolation
 Exchange:     0.2000 Hartree-Fock + 0.0800 Slater + 0.7200 B88
 Correlation:  0.1900 VWN1RPA + 0.8100 LYP
 Using SG-1 standard quadrature grid
 SCF converges when DIIS error is below 1.0E-08
    2    -152.7273989533      2.41E-02
 ---------------------------------------
  Cycle       Energy         DIIS Error
 ---------------------------------------
    1     -76.4086609243      1.32E-01
    3    -152.6707574424      2.95E-02
    2     -76.3540267012      3.54E-02
    3     -76.3237813926      4.32E-02
    4    -152.8503938390      6.01E-04
    4     -76.4203094573      8.83E-04
    5    -152.8504530578      2.86E-04
    5     -76.4203477225      1.59E-04
    6    -152.8504656611      1.38E-04
    6     -76.4203488945      2.06E-05
    7     -76.4203489168      3.37E-07
    7    -152.8504694980      8.18E-06
    8     -76.4203489169      2.89E-08
    8    -152.8504695123      9.87E-07
    9     -76.4203489169      3.43E-09 Convergence criterion met
 ---------------------------------------
 SCF time:  CPU 1.92 s  wall 0.48 s
 SCF   energy =   -76.42034892
 Total energy =   -76.42034892
 Fragment 0 ; Energy = -76.4203489169 Hartree
 Guess from superposition of atomic densities
 Warning:  Energy on first SCF cycle will be non-variational
 SAD guess density has 10.000000 electrons

                       Distance Matrix (Angstroms)
             O (  1)   H (  2)
   H (  2)  0.957185
   H (  3)  0.957186  1.513800
 
 Applying Cartesian multipole field
    Component          Value
    ---------          -----
     (2,0,0)        1.00000E-11
     (0,2,0)        2.00000E-11
     (0,0,2)       -3.00000E-11
 Guess from superposition of atomic densities
 Warning:  Energy on first SCF cycle will be non-variational
 SAD guess density has 10.000000 electrons
 A restricted hybrid HF-DFT SCF calculation will be
 performed using Pulay DIIS extrapolation
 Exchange:     0.2000 Hartree-Fock + 0.0800 Slater + 0.7200 B88
 Correlation:  0.1900 VWN1RPA + 0.8100 LYP
 Using SG-1 standard quadrature grid
 SCF converges when DIIS error is below 1.0E-08
    9    -152.8504695125      1.02E-07
 ---------------------------------------
  Cycle       Energy         DIIS Error
 ---------------------------------------
    1     -76.4086638485      1.32E-01
    2     -76.3540250987      3.54E-02
   10    -152.8504695125      9.49E-09 Convergence criterion met
 ---------------------------------------
 SCF time:  CPU 2.74 s  wall 0.71 s
 SCF   energy =  -152.85046951
 Total energy =  -152.85046951
 Fragment 1 & 3 ; Energy = -152.8504695125 Hartree
 Guess from superposition of atomic densities
 Warning:  Energy on first SCF cycle will be non-variational
 SAD guess density has 20.000000 electrons

                       Distance Matrix (Angstroms)
             O (  1)   H (  2)   H (  3)   O (  4)   H (  5)
   H (  2)  0.957200
   H (  3)  0.957177  1.513894
   O (  4)  2.710460  1.770974  3.207401
   H (  5)  2.995868  2.165776  3.545764  0.957186
   H (  6)  2.959825  2.131438  3.625627  0.957265  1.513900
 
 Applying Cartesian multipole field
    Component          Value
    ---------          -----
     (2,0,0)        1.00000E-11
     (0,2,0)        2.00000E-11
     (0,0,2)       -3.00000E-11
 Nucleus-field energy     =    -0.0000000033 hartrees
 Guess from superposition of atomic densities
 Warning:  Energy on first SCF cycle will be non-variational
 SAD guess density has 20.000000 electrons
 A restricted hybrid HF-DFT SCF calculation will be
 performed using Pulay DIIS extrapolation
 Exchange:     0.2000 Hartree-Fock + 0.0800 Slater + 0.7200 B88
 Correlation:  0.1900 VWN1RPA + 0.8100 LYP
 Using SG-1 standard quadrature grid
 SCF converges when DIIS error is below 1.0E-08
    3     -76.3237763463      4.33E-02
 ---------------------------------------
  Cycle       Energy         DIIS Error
 ---------------------------------------
    1    -152.8652669937      9.51E-02
    4     -76.4203066088      8.83E-04
    2    -152.7333984445      2.39E-02
    5     -76.4203448693      1.59E-04
    6     -76.4203460413      2.06E-05
    3    -152.6832020656      2.88E-02
    7     -76.4203460637      3.37E-07
    4    -152.8526491221      7.37E-04
    8     -76.4203460637      2.89E-08
    5    -152.8527111742      4.94E-04
    9     -76.4203460637      3.43E-09 Convergence criterion met
 ---------------------------------------
 SCF time:  CPU 1.91 s  wall 0.48 s
 SCF   energy =   -76.42034606
 Total energy =   -76.42034606
 Fragment 1 ; Energy = -76.4203460637 Hartree
 Guess from superposition of atomic densities
 Warning:  Energy on first SCF cycle will be non-variational
 SAD guess density has 10.000000 electrons

                       Distance Matrix (Angstroms)
             O (  1)   H (  2)
   H (  2)  0.957200
   H (  3)  0.957177  1.513894
 
 Applying Cartesian multipole field
    Component          Value
    ---------          -----
     (2,0,0)        1.00000E-11
     (0,2,0)        2.00000E-11
     (0,0,2)       -3.00000E-11
 Nucleus-field energy     =    -0.0000000024 hartrees
 Guess from superposition of atomic densities
 Warning:  Energy on first SCF cycle will be non-variational
 SAD guess density has 10.000000 electrons
 A restricted hybrid HF-DFT SCF calculation will be
 performed using Pulay DIIS extrapolation
 Exchange:     0.2000 Hartree-Fock + 0.0800 Slater + 0.7200 B88
 Correlation:  0.1900 VWN1RPA + 0.8100 LYP
 Using SG-1 standard quadrature grid
 SCF converges when DIIS error is below 1.0E-08
 ---------------------------------------
  Cycle       Energy         DIIS Error
 ---------------------------------------
    1     -76.4086547665      1.32E-01
    6    -152.8527579469      1.14E-04
    2     -76.3540227478      3.54E-02
    7    -152.8527605629      6.95E-06
    3     -76.3237773438      4.32E-02
    8    -152.8527605733      2.77E-07
    4     -76.4203042687      8.83E-04
    5     -76.4203425341      1.59E-04
    9    -152.8527605733      8.67E-08
    6     -76.4203437061      2.06E-05
   10    -152.8527605733      8.87E-09 Convergence criterion met
 ---------------------------------------
 SCF time:  CPU 2.75 s  wall 0.71 s
 SCF   energy =  -152.85276057
 Total energy =  -152.85276057
 Fragment 2 & 3 ; Energy = -152.8527605733 Hartree
====================================
      1-Body
====================================
 Guess from superposition of atomic densities
 Warning:  Energy on first SCF cycle will be non-variational
 SAD guess density has 10.000000 electrons

                       Distance Matrix (Angstroms)
             O (  1)   H (  2)
   H (  2)  0.957199
   H (  3)  0.957177  1.513893
 
 Applying Cartesian multipole field
    Component          Value
    ---------          -----
     (2,0,0)        1.00000E-11
     (0,2,0)        2.00000E-11
     (0,0,2)       -3.00000E-11
 Nucleus-field energy     =     0.0000000026 hartrees
 Guess from superposition of atomic densities
 Warning:  Energy on first SCF cycle will be non-variational
 SAD guess density has 10.000000 electrons
 A restricted hybrid HF-DFT SCF calculation will be
 performed using Pulay DIIS extrapolation
 Exchange:     0.2000 Hartree-Fock + 0.0800 Slater + 0.7200 B88
 Correlation:  0.1900 VWN1RPA + 0.8100 LYP
 Using SG-1 standard quadrature grid
 SCF converges when DIIS error is below 1.0E-08
    7     -76.4203437285      3.37E-07
 ---------------------------------------
  Cycle       Energy         DIIS Error
 ---------------------------------------
    1     -76.4086609243      1.32E-01
    8     -76.4203437285      2.89E-08
    2     -76.3540267012      3.54E-02
    9     -76.4203437285      3.43E-09 Convergence criterion met
 ---------------------------------------
 SCF time:  CPU 1.89 s  wall 0.48 s
 SCF   energy =   -76.42034373
 Total energy =   -76.42034373
 Fragment 2 ; Energy = -76.4203437285 Hartree
 Guess from superposition of atomic densities
 Warning:  Energy on first SCF cycle will be non-variational
 SAD guess density has 10.000000 electrons

                       Distance Matrix (Angstroms)
             O (  1)   H (  2)
   H (  2)  0.957186
   H (  3)  0.957265  1.513900
 
 Applying Cartesian multipole field
    Component          Value
    ---------          -----
     (2,0,0)        1.00000E-11
     (0,2,0)        2.00000E-11
     (0,0,2)       -3.00000E-11
 Nucleus-field energy     =    -0.0000000008 hartrees
 Guess from superposition of atomic densities
 Warning:  Energy on first SCF cycle will be non-variational
 SAD guess density has 10.000000 electrons
 A restricted hybrid HF-DFT SCF calculation will be
 performed using Pulay DIIS extrapolation
 Exchange:     0.2000 Hartree-Fock + 0.0800 Slater + 0.7200 B88
 Correlation:  0.1900 VWN1RPA + 0.8100 LYP
 Using SG-1 standard quadrature grid
 SCF converges when DIIS error is below 1.0E-08
    3     -76.3237813926      4.32E-02
 ---------------------------------------
  Cycle       Energy         DIIS Error
 ---------------------------------------
    1     -76.4086150946      1.32E-01
    4     -76.4203094573      8.83E-04
    2     -76.3540244555      3.54E-02
    5     -76.4203477225      1.59E-04
    3     -76.3237704991      4.33E-02
    6     -76.4203488945      2.06E-05
    4     -76.4203055960      8.83E-04
    7     -76.4203489168      3.37E-07
    5     -76.4203438691      1.59E-04
    8     -76.4203489169      2.89E-08
    6     -76.4203450415      2.06E-05
    7     -76.4203450638      3.37E-07
    9     -76.4203489169      3.43E-09 Convergence criterion met
 ---------------------------------------
 SCF time:  CPU 1.96 s  wall 0.51 s
 SCF   energy =   -76.42034892
 Total energy =   -76.42034892
 Fragment 0 ; Energy = -76.4203489169 Hartree
 Guess from superposition of atomic densities
 Warning:  Energy on first SCF cycle will be non-variational
 SAD guess density has 10.000000 electrons

                       Distance Matrix (Angstroms)
             O (  1)   H (  2)
   H (  2)  0.957185
   H (  3)  0.957186  1.513800
 
 Applying Cartesian multipole field
    Component          Value
    ---------          -----
     (2,0,0)        1.00000E-11
     (0,2,0)        2.00000E-11
     (0,0,2)       -3.00000E-11
 Guess from superposition of atomic densities
 Warning:  Energy on first SCF cycle will be non-variational
 SAD guess density has 10.000000 electrons
 A restricted hybrid HF-DFT SCF calculation will be
 performed using Pulay DIIS extrapolation
 Exchange:     0.2000 Hartree-Fock + 0.0800 Slater + 0.7200 B88
 Correlation:  0.1900 VWN1RPA + 0.8100 LYP
 Using SG-1 standard quadrature grid
 SCF converges when DIIS error is below 1.0E-08
    8     -76.4203450638      2.89E-08
 ---------------------------------------
  Cycle       Energy         DIIS Error
 ---------------------------------------
    1     -76.4086638485      1.32E-01
    9     -76.4203450638      3.44E-09 Convergence criterion met
 ---------------------------------------
 SCF time:  CPU 1.92 s  wall 0.48 s
 SCF   energy =   -76.42034506
 Total energy =   -76.42034506
 Fragment 3 ; Energy = -76.4203450638 Hartree
==============================================================
		--------------------------------------------------------------
		------   TOTAL 1-BODY ENERGY      -305.6813837729 a.u.  ------
		------   TOTAL 2-BODY ENERGY      -917.0844596021 a.u.  ------
		------   TOTAL 3-BODY ENERGY      -917.1253002145 a.u.  ------
		-------------------------------------------------------------------
		------   TOTAL ENERGY up to 1-BODY    -305.6813837729 a.u.  -------
		------   TOTAL ENERGY up to 2-BODY    -305.7216920564 a.u.  -------
		------   TOTAL ENERGY up to 3-BODY    -305.7222243852 a.u.  -------
		-------------------------------------------------------------------
===============  MBE Energy Timing Information  ============
 Total    :  CPU 41.15 s  wall 10.37 s
============================================================

 ***********************************************
 ***** END OF MANY-BODY ENERGY CALCULATION *****
 ***********************************************


 *******************************************
 ***** PERFORMING MBE-BSSE CALCULATION *****
 *******************************************

--------------------------------------------------------------
|                1-Body with 3-Body Basis                    |
--------------------------------------------------------------
 Guess from superposition of atomic densities
 Warning:  Energy on first SCF cycle will be non-variational
 SAD guess density has 30.000000 electrons

                       Distance Matrix (Angstroms)
             O (  1)   H (  2)   H (  3)   GH(  4)   GH(  5)   GH(  6)
   H (  2)  0.957199
   H (  3)  0.957177  1.513893
   GH(  4)  3.578692  3.169107  4.498648
   GH(  5)  3.178000  2.950767  4.117197  0.957185
   GH(  6)  4.491544  4.071507  5.412568  0.957186  1.513800
   GH(  7)  3.847809  3.306763  4.163416  4.021514  4.553263  4.767519
   GH(  8)  3.374916  2.995508  3.821560  3.504092  3.965699  4.302330
   GH(  9)  4.721333  4.240768  5.014880  4.680992  5.289145  5.350172
             GH(  7)   GH(  8)
   GH(  8)  0.957200
   GH(  9)  0.957177  1.513894
 
 Applying Cartesian multipole field
    Component          Value
    ---------          -----
     (2,0,0)        1.00000E-11
     (0,2,0)        2.00000E-11
     (0,0,2)       -3.00000E-11
 Nucleus-field energy     =     0.0000000026 hartrees
    2     -76.3540250987      3.54E-02
 Guess from superposition of atomic densities
 Warning:  Energy on first SCF cycle will be non-variational
 SAD guess density has 10.000000 electrons
 A restricted hybrid HF-DFT SCF calculation will be
 performed using Pulay DIIS extrapolation
 Exchange:     0.2000 Hartree-Fock + 0.0800 Slater + 0.7200 B88
 Correlation:  0.1900 VWN1RPA + 0.8100 LYP
 Using SG-1 standard quadrature grid
 SCF converges when DIIS error is below 1.0E-08
    3     -76.3237763463      4.33E-02
 ---------------------------------------
  Cycle       Energy         DIIS Error
 ---------------------------------------
    1     -76.4086640066      4.40E-02
    4     -76.4203066088      8.83E-04
    2     -76.3557602381      1.17E-02
    5     -76.4203448693      1.59E-04
    6     -76.4203460413      2.06E-05
    3     -76.3229474630      1.46E-02
    7     -76.4203460637      3.37E-07
    8     -76.4203460637      2.89E-08
    4     -76.4217364212      3.00E-04
    9     -76.4203460637      3.43E-09 Convergence criterion met
 ---------------------------------------
 SCF time:  CPU 1.97 s  wall 0.51 s
 SCF   energy =   -76.42034606
 Total energy =   -76.42034606
 Fragment 1 ; Energy = -76.4203460637 Hartree
 Guess from superposition of atomic densities
 Warning:  Energy on first SCF cycle will be non-variational
 SAD guess density has 10.000000 electrons

                       Distance Matrix (Angstroms)
             O (  1)   H (  2)
   H (  2)  0.957200
   H (  3)  0.957177  1.513894
 
 Applying Cartesian multipole field
    Component          Value
    ---------          -----
     (2,0,0)        1.00000E-11
     (0,2,0)        2.00000E-11
     (0,0,2)       -3.00000E-11
 Nucleus-field energy     =    -0.0000000024 hartrees
 Guess from superposition of atomic densities
 Warning:  Energy on first SCF cycle will be non-variational
 SAD guess density has 10.000000 electrons
 A restricted hybrid HF-DFT SCF calculation will be
 performed using Pulay DIIS extrapolation
 Exchange:     0.2000 Hartree-Fock + 0.0800 Slater + 0.7200 B88
 Correlation:  0.1900 VWN1RPA + 0.8100 LYP
 Using SG-1 standard quadrature grid
 SCF converges when DIIS error is below 1.0E-08
    5     -76.4217765653      5.34E-05
 ---------------------------------------
  Cycle       Energy         DIIS Error
 ---------------------------------------
    1     -76.4086547665      1.32E-01
    6     -76.4217777597      7.20E-06
    2     -76.3540227478      3.54E-02
    3     -76.3237773438      4.32E-02
    7     -76.4217777842      3.63E-07
    4     -76.4203042687      8.83E-04
    8     -76.4217777843      9.70E-08
    5     -76.4203425341      1.59E-04
    6     -76.4203437061      2.06E-05
    9     -76.4217777843      3.95E-09 Convergence criterion met
 ---------------------------------------
 SCF time:  CPU 3.07 s  wall 0.77 s
 SCF   energy =   -76.42177778
 Total energy =   -76.42177778
 Fragment 0 & ghost 1 & 2 ; Energy = -76.4217777843 Hartree
 Guess from superposition of atomic densities
 Warning:  Energy on first SCF cycle will be non-variational
 SAD guess density has 10.000000 electrons

                       Distance Matrix (Angstroms)
             O (  1)   H (  2)   H (  3)   GH(  4)   GH(  5)   GH(  6)
   H (  2)  0.957199
   H (  3)  0.957177  1.513893
   GH(  4)  3.578692  3.169107  4.498648
   GH(  5)  3.178000  2.950767  4.117197  0.957185
[...]
    7     -76.4203489168      3.37E-07
    8     -76.4203489169      2.89E-08
    4     -76.4223960117      4.34E-04
    9     -76.4203489169      3.43E-09 Convergence criterion met
 ---------------------------------------
 SCF time:  CPU 1.91 s  wall 0.48 s
 SCF   energy =   -76.42034892
 Total energy =   -76.42034892
 Fragment 0 ; Energy = -76.4203489169 Hartree
 Guess from superposition of atomic densities
 Warning:  Energy on first SCF cycle will be non-variational
 SAD guess density has 10.000000 electrons

                       Distance Matrix (Angstroms)
             O (  1)   H (  2)
   H (  2)  0.957185
   H (  3)  0.957186  1.513800
 
 Applying Cartesian multipole field
    Component          Value
    ---------          -----
     (2,0,0)        1.00000E-11
     (0,2,0)        2.00000E-11
     (0,0,2)       -3.00000E-11
 Guess from superposition of atomic densities
 Warning:  Energy on first SCF cycle will be non-variational
 SAD guess density has 10.000000 electrons
 A restricted hybrid HF-DFT SCF calculation will be
 performed using Pulay DIIS extrapolation
 Exchange:     0.2000 Hartree-Fock + 0.0800 Slater + 0.7200 B88
 Correlation:  0.1900 VWN1RPA + 0.8100 LYP
 Using SG-1 standard quadrature grid
 SCF converges when DIIS error is below 1.0E-08
    5     -76.4224338594      8.28E-05
 ---------------------------------------
  Cycle       Energy         DIIS Error
 ---------------------------------------
    1     -76.4086638485      1.32E-01
    6     -76.4224351259      1.18E-05
    2     -76.3540250987      3.54E-02
    7     -76.4224351555      4.90E-07
    3     -76.3237763463      4.33E-02
    4     -76.4203066088      8.83E-04
    8     -76.4224351556      1.47E-07
    5     -76.4203448693      1.59E-04
    9     -76.4224351556      9.48E-09 Convergence criterion met
 ---------------------------------------
 SCF time:  CPU 2.43 s  wall 0.62 s
 SCF   energy =   -76.42243516
 Total energy =   -76.42243516
 Fragment 3 & ghost 0 ; Energy = -76.4224351556 Hartree
 Guess from superposition of atomic densities
 Warning:  Energy on first SCF cycle will be non-variational
 SAD guess density has 20.000000 electrons

                       Distance Matrix (Angstroms)
             O (  1)   H (  2)   H (  3)   GH(  4)   GH(  5)
   H (  2)  0.957186
   H (  3)  0.957265  1.513900
   GH(  4)  2.805697  1.890027  2.995451
   GH(  5)  2.981889  2.182805  2.922141  0.957185
   GH(  6)  3.639264  2.687759  3.915456  0.957186  1.513800
 
 Applying Cartesian multipole field
    Component          Value
    ---------          -----
     (2,0,0)        1.00000E-11
     (0,2,0)        2.00000E-11
     (0,0,2)       -3.00000E-11
 Nucleus-field energy     =    -0.0000000008 hartrees
 Guess from superposition of atomic densities
 Warning:  Energy on first SCF cycle will be non-variational
 SAD guess density has 10.000000 electrons
 A restricted hybrid HF-DFT SCF calculation will be
 performed using Pulay DIIS extrapolation
 Exchange:     0.2000 Hartree-Fock + 0.0800 Slater + 0.7200 B88
 Correlation:  0.1900 VWN1RPA + 0.8100 LYP
 Using SG-1 standard quadrature grid
 SCF converges when DIIS error is below 1.0E-08
    6     -76.4203460413      2.06E-05
    7     -76.4203460637      3.37E-07
 ---------------------------------------
  Cycle       Energy         DIIS Error
 ---------------------------------------
    1     -76.4086152649      6.60E-02
    8     -76.4203460637      2.89E-08
    2     -76.3558922093      1.76E-02
    9     -76.4203460637      3.43E-09 Convergence criterion met
 ---------------------------------------
 SCF time:  CPU 1.91 s  wall 0.48 s
 SCF   energy =   -76.42034606
 Total energy =   -76.42034606
 Fragment 1 ; Energy = -76.4203460637 Hartree
 Guess from superposition of atomic densities
 Warning:  Energy on first SCF cycle will be non-variational
 SAD guess density has 10.000000 electrons

                       Distance Matrix (Angstroms)
             O (  1)   H (  2)
   H (  2)  0.957200
   H (  3)  0.957177  1.513894
 
 Applying Cartesian multipole field
    Component          Value
    ---------          -----
     (2,0,0)        1.00000E-11
     (0,2,0)        2.00000E-11
     (0,0,2)       -3.00000E-11
 Nucleus-field energy     =    -0.0000000024 hartrees
 Guess from superposition of atomic densities
 Warning:  Energy on first SCF cycle will be non-variational
 SAD guess density has 10.000000 electrons
 A restricted hybrid HF-DFT SCF calculation will be
 performed using Pulay DIIS extrapolation
 Exchange:     0.2000 Hartree-Fock + 0.0800 Slater + 0.7200 B88
 Correlation:  0.1900 VWN1RPA + 0.8100 LYP
 Using SG-1 standard quadrature grid
 SCF converges when DIIS error is below 1.0E-08
    3     -76.3213702163      2.20E-02
 ---------------------------------------
  Cycle       Energy         DIIS Error
 ---------------------------------------
    1     -76.4086547665      1.32E-01
    4     -76.4219688977      4.25E-04
    2     -76.3540227478      3.54E-02
    3     -76.3237773438      4.32E-02
    5     -76.4220050893      8.30E-05
    4     -76.4203042687      8.83E-04
    6     -76.4220063590      1.16E-05
    5     -76.4203425341      1.59E-04
    7     -76.4220063874      3.47E-07
    6     -76.4203437061      2.06E-05
    7     -76.4203437285      3.37E-07
    8     -76.4220063875      1.25E-07
    8     -76.4203437285      2.89E-08
    9     -76.4220063875      7.43E-09 Convergence criterion met
 ---------------------------------------
 SCF time:  CPU 2.41 s  wall 0.62 s
 SCF   energy =   -76.42200639
 Total energy =   -76.42200639
 Fragment 3 & ghost 1 ; Energy = -76.4220063875 Hartree
 Guess from superposition of atomic densities
 Warning:  Energy on first SCF cycle will be non-variational
 SAD guess density has 20.000000 electrons

                       Distance Matrix (Angstroms)
             O (  1)   H (  2)   H (  3)   GH(  4)   GH(  5)
   H (  2)  0.957186
   H (  3)  0.957265  1.513900
   GH(  4)  2.710460  2.995868  2.959825
   GH(  5)  1.770974  2.165776  2.131438  0.957200
   GH(  6)  3.207401  3.545764  3.625627  0.957177  1.513894
 
 Applying Cartesian multipole field
    Component          Value
    ---------          -----
     (2,0,0)        1.00000E-11
     (0,2,0)        2.00000E-11
     (0,0,2)       -3.00000E-11
 Nucleus-field energy     =    -0.0000000008 hartrees
 Guess from superposition of atomic densities
 Warning:  Energy on first SCF cycle will be non-variational
 SAD guess density has 10.000000 electrons
 A restricted hybrid HF-DFT SCF calculation will be
 performed using Pulay DIIS extrapolation
 Exchange:     0.2000 Hartree-Fock + 0.0800 Slater + 0.7200 B88
 Correlation:  0.1900 VWN1RPA + 0.8100 LYP
 Using SG-1 standard quadrature grid
 SCF converges when DIIS error is below 1.0E-08
    9     -76.4203437285      3.43E-09 Convergence criterion met
 ---------------------------------------
 SCF time:  CPU 1.91 s  wall 0.48 s
 SCF   energy =   -76.42034373
 Total energy =   -76.42034373
 Fragment 2 ; Energy = -76.4203437285 Hartree
 Guess from superposition of atomic densities
 Warning:  Energy on first SCF cycle will be non-variational
 SAD guess density has 10.000000 electrons

                       Distance Matrix (Angstroms)
             O (  1)   H (  2)
   H (  2)  0.957186
   H (  3)  0.957265  1.513900
 
 Applying Cartesian multipole field
    Component          Value
    ---------          -----
     (2,0,0)        1.00000E-11
     (0,2,0)        2.00000E-11
     (0,0,2)       -3.00000E-11
 Nucleus-field energy     =    -0.0000000008 hartrees
 Guess from superposition of atomic densities
 Warning:  Energy on first SCF cycle will be non-variational
 SAD guess density has 10.000000 electrons
 A restricted hybrid HF-DFT SCF calculation will be
 performed using Pulay DIIS extrapolation
 Exchange:     0.2000 Hartree-Fock + 0.0800 Slater + 0.7200 B88
 Correlation:  0.1900 VWN1RPA + 0.8100 LYP
 Using SG-1 standard quadrature grid
 SCF converges when DIIS error is below 1.0E-08
 ---------------------------------------
  Cycle       Energy         DIIS Error
 ---------------------------------------
    1     -76.4086155400      6.61E-02
 ---------------------------------------
  Cycle       Energy         DIIS Error
 ---------------------------------------
    1     -76.4086150946      1.32E-01
    2     -76.3540244555      3.54E-02
    2     -76.3613873539      1.74E-02
    3     -76.3237704991      4.33E-02
    3     -76.3164493062      2.29E-02
    4     -76.4203055960      8.83E-04
    4     -76.4265845496      5.00E-04
    5     -76.4203438691      1.59E-04
    6     -76.4203450415      2.06E-05
    5     -76.4266359645      8.77E-05
    7     -76.4203450638      3.37E-07
    6     -76.4266373595      1.41E-05
    8     -76.4203450638      2.89E-08
    7     -76.4266374007      3.98E-07
    9     -76.4203450638      3.44E-09 Convergence criterion met
 ---------------------------------------
 SCF time:  CPU 1.91 s  wall 0.48 s
 SCF   energy =   -76.42034506
 Total energy =   -76.42034506
 Fragment 3 ; Energy = -76.4203450638 Hartree
==============================================================
		==============================================================================
		||       TOTAL ENERGY for 1B                  -305.6813837729 a.u.          ||
		||       TOTAL ENERGY for 1B with 2B Basis    -917.0675351687 a.u.          ||
		||       TOTAL ENERGY for 2B                     0.0000000000 a.u.          ||
		||       TOTAL ENERGY for 1B with 3B Basis    -917.0888517378 a.u.          ||
		||       TOTAL ENERGY for 2B with 3B Basis       0.0000000000 a.u.          ||
		||       TOTAL ENERGY for 3B                     0.0000000000 a.u.          ||
		||       TOTAL ENERGY for 1B with 4B Basis       0.0000000000 a.u.          ||
		||       TOTAL ENERGY for 2B with 4B Basis       0.0000000000 a.u.          ||
		||       TOTAL ENERGY for 3B with 4B Basis       0.0000000000 a.u.          ||
		==============================================================================
		======   TOTAL MBCP(2)/VMFC(2) CORRECTION        0.0233838501 a.u.      ======
		======   TOTAL MBCP(3) CORRECTION                0.0213165691 a.u.      ======
		==============================================================================
=================MBE BSSE Energy Timing Information=========
 Total    :  CPU 77.10 s  wall 19.42 s
============================================================

 *******************************************
 ***** END OF MBE-BSSE CALCULATION *****
 *******************************************

 Total job time:  29.97s(wall), 118.87s(cpu) 
 Thu May 28 21:46:07 2026

        *************************************************************
        *                                                           *
        *  Thank you very much for using Q-Chem.  Have a nice day.  *
        *                                                           *
        *************************************************************


    8     -76.4266374007      9.53E-08
    9     -76.4266374007      1.04E-08
   10     -76.4266374007      2.27E-09 Convergence criterion met
 ---------------------------------------
 SCF time:  CPU 2.73 s  wall 0.70 s
 SCF   energy =   -76.42663740
 Total energy =   -76.42663740
 Fragment 3 & ghost 2 ; Energy = -76.4266374007 Hartree
--------------------------------------------------------------
|                    1-Body (vacuum)                         |
--------------------------------------------------------------
 Guess from superposition of atomic densities
 Warning:  Energy on first SCF cycle will be non-variational
 SAD guess density has 10.000000 electrons

                       Distance Matrix (Angstroms)
             O (  1)   H (  2)
   H (  2)  0.957199
   H (  3)  0.957177  1.513893
 
 Applying Cartesian multipole field
    Component          Value
    ---------          -----
     (2,0,0)        1.00000E-11
     (0,2,0)        2.00000E-11
     (0,0,2)       -3.00000E-11
 Nucleus-field energy     =     0.0000000026 hartrees
 Guess from superposition of atomic densities
 Warning:  Energy on first SCF cycle will be non-variational
 SAD guess density has 10.000000 electrons
 A restricted hybrid HF-DFT SCF calculation will be
 performed using Pulay DIIS extrapolation
 Exchange:     0.2000 Hartree-Fock + 0.0800 Slater + 0.7200 B88
 Correlation:  0.1900 VWN1RPA + 0.8100 LYP
 Using SG-1 standard quadrature grid
 SCF converges when DIIS error is below 1.0E-08
 ---------------------------------------
  Cycle       Energy         DIIS Error
 ---------------------------------------
    1     -76.4086609243      1.32E-01
    2     -76.3540267012      3.54E-02
    3     -76.3237813926      4.32E-02
    4     -76.4203094573      8.83E-04
    5     -76.4203477225      1.59E-04
    6     -76.4203488945      2.06E-05
    7     -76.4203489168      3.37E-07
    8     -76.4203489169      2.89E-08
    9     -76.4203489169      3.43E-09 Convergence criterion met
 ---------------------------------------
 SCF time:  CPU 1.93 s  wall 0.50 s
 SCF   energy =   -76.42034892
 Total energy =   -76.42034892
 Fragment 0 ; Energy = -76.4203489169 Hartree
 Guess from superposition of atomic densities
 Warning:  Energy on first SCF cycle will be non-variational
 SAD guess density has 10.000000 electrons

                       Distance Matrix (Angstroms)
             O (  1)   H (  2)
   H (  2)  0.957185
   H (  3)  0.957186  1.513800
 
 Applying Cartesian multipole field
    Component          Value
    ---------          -----
     (2,0,0)        1.00000E-11
     (0,2,0)        2.00000E-11
     (0,0,2)       -3.00000E-11
 Guess from superposition of atomic densities
 Warning:  Energy on first SCF cycle will be non-variational
 SAD guess density has 10.000000 electrons
 A restricted hybrid HF-DFT SCF calculation will be
 performed using Pulay DIIS extrapolation
 Exchange:     0.2000 Hartree-Fock + 0.0800 Slater + 0.7200 B88
 Correlation:  0.1900 VWN1RPA + 0.8100 LYP
 Using SG-1 standard quadrature grid
 SCF converges when DIIS error is below 1.0E-08
 ---------------------------------------
  Cycle       Energy         DIIS Error
 ---------------------------------------
    1     -76.4086638485      1.32E-01
    2     -76.3540250987      3.54E-02
    3     -76.3237763463      4.33E-02
    4     -76.4203066088      8.83E-04
    5     -76.4203448693      1.59E-04
    6     -76.4203460413      2.06E-05
    7     -76.4203460637      3.37E-07
    8     -76.4203460637      2.89E-08
    9     -76.4203460637      3.43E-09 Convergence criterion met
 ---------------------------------------
 SCF time:  CPU 1.96 s  wall 0.51 s
 SCF   energy =   -76.42034606
 Total energy =   -76.42034606
 Fragment 1 ; Energy = -76.4203460637 Hartree
 Guess from superposition of atomic densities
 Warning:  Energy on first SCF cycle will be non-variational
 SAD guess density has 10.000000 electrons

                       Distance Matrix (Angstroms)
             O (  1)   H (  2)
   H (  2)  0.957200
   H (  3)  0.957177  1.513894
 
 Applying Cartesian multipole field
    Component          Value
    ---------          -----
     (2,0,0)        1.00000E-11
     (0,2,0)        2.00000E-11
     (0,0,2)       -3.00000E-11
 Nucleus-field energy     =    -0.0000000024 hartrees
 Guess from superposition of atomic densities
 Warning:  Energy on first SCF cycle will be non-variational
 SAD guess density has 10.000000 electrons
 A restricted hybrid HF-DFT SCF calculation will be
 performed using Pulay DIIS extrapolation
 Exchange:     0.2000 Hartree-Fock + 0.0800 Slater + 0.7200 B88
 Correlation:  0.1900 VWN1RPA + 0.8100 LYP
 Using SG-1 standard quadrature grid
 SCF converges when DIIS error is below 1.0E-08
 ---------------------------------------
  Cycle       Energy         DIIS Error
 ---------------------------------------
    1     -76.4086547665      1.32E-01
    2     -76.3540227478      3.54E-02
    3     -76.3237773438      4.32E-02
    4     -76.4203042687      8.83E-04
    5     -76.4203425341      1.59E-04
    6     -76.4203437061      2.06E-05
    7     -76.4203437285      3.37E-07
    8     -76.4203437285      2.89E-08
    9     -76.4203437285      3.43E-09 Convergence criterion met
 ---------------------------------------
 SCF time:  CPU 1.93 s  wall 0.50 s
 SCF   energy =   -76.42034373
 Total energy =   -76.42034373
 Fragment 2 ; Energy = -76.4203437285 Hartree
 Guess from superposition of atomic densities
 Warning:  Energy on first SCF cycle will be non-variational
 SAD guess density has 10.000000 electrons

                       Distance Matrix (Angstroms)
             O (  1)   H (  2)
   H (  2)  0.957186
   H (  3)  0.957265  1.513900
 
 Applying Cartesian multipole field
    Component          Value
    ---------          -----
     (2,0,0)        1.00000E-11
     (0,2,0)        2.00000E-11
     (0,0,2)       -3.00000E-11
 Nucleus-field energy     =    -0.0000000008 hartrees
 Guess from superposition of atomic densities
 Warning:  Energy on first SCF cycle will be non-variational
 SAD guess density has 10.000000 electrons
 A restricted hybrid HF-DFT SCF calculation will be
 performed using Pulay DIIS extrapolation
 Exchange:     0.2000 Hartree-Fock + 0.0800 Slater + 0.7200 B88
 Correlation:  0.1900 VWN1RPA + 0.8100 LYP
 Using SG-1 standard quadrature grid
 SCF converges when DIIS error is below 1.0E-08
 ---------------------------------------
  Cycle       Energy         DIIS Error
 ---------------------------------------
    1     -76.4086150946      1.32E-01
    2     -76.3540244555      3.54E-02
    3     -76.3237704991      4.33E-02
    4     -76.4203055960      8.83E-04
    5     -76.4203438691      1.59E-04
    6     -76.4203450415      2.06E-05
    7     -76.4203450638      3.37E-07
    8     -76.4203450638      2.89E-08
    9     -76.4203450638      3.44E-09 Convergence criterion met
 ---------------------------------------
 SCF time:  CPU 1.94 s  wall 0.50 s
 SCF   energy =   -76.42034506
 Total energy =   -76.42034506
 Fragment 3 ; Energy = -76.4203450638 Hartree
==============================================================
		==============================================================================
		||       TOTAL ENERGY for 1B                  -305.6813837729 a.u.          ||
		||       TOTAL ENERGY for 1B with 2B Basis    -917.0675351687 a.u.          ||
		||       TOTAL ENERGY for 2B                     0.0000000000 a.u.          ||
		||       TOTAL ENERGY for 1B with 3B Basis    -917.0888517378 a.u.          ||
		||       TOTAL ENERGY for 2B with 3B Basis       0.0000000000 a.u.          ||
		||       TOTAL ENERGY for 3B                     0.0000000000 a.u.          ||
		||       TOTAL ENERGY for 1B with 4B Basis       0.0000000000 a.u.          ||
		||       TOTAL ENERGY for 2B with 4B Basis       0.0000000000 a.u.          ||
		||       TOTAL ENERGY for 3B with 4B Basis       0.0000000000 a.u.          ||
		==============================================================================
		======   TOTAL MBCP(2)/VMFC(2) CORRECTION        0.0233838501 a.u.      ======
		======   TOTAL MBCP(3) CORRECTION                0.0213165691 a.u.      ======
		==============================================================================
=================MBE BSSE Energy Timing Information=========
 Total    :  CPU 78.74 s  wall 20.20 s
============================================================

 *******************************************
 ***** END OF MBE-BSSE CALCULATION *****
 *******************************************

 Total job time:  31.97s(wall), 122.13s(cpu) 
 Thu May 28 21:46:09 2026

        *************************************************************
        *                                                           *
        *  Thank you very much for using Q-Chem.  Have a nice day.  *
        *                                                           *
        *************************************************************


