/*--------------------------------*- C++ -*----------------------------------*\
| =========                 |                                                 |
| \\      /  F ield         | OpenFOAM: The Open Source CFD Toolbox           |
|  \\    /   O peration     | Version:  v2012                                 |
|   \\  /    A nd           | Website:  www.openfoam.com                      |
|    \\/     M anipulation  |                                                 |
\*---------------------------------------------------------------------------*/
FoamFile
{
    version     2.0;
    format      ascii;
    class       surfaceScalarField;
    location    "0.15";
    object      phi;
}
// * * * * * * * * * * * * * * * * * * * * * * * * * * * * * * * * * * * * * //

dimensions      [0 3 -1 0 0 0 0];
oriented        oriented;


internalField   nonuniform List<scalar> 
2425
(
1.17404e-09
-1.18568e-09
2.41077e-09
-1.23683e-09
2.5095e-09
-9.87279e-11
1.03354e-09
1.47598e-09
-2.0972e-09
3.13072e-09
-6.79482e-09
4.69759e-09
-1.28893e-08
6.09452e-09
-2.01735e-08
7.28417e-09
-2.84259e-08
8.2524e-09
-3.7423e-08
8.99718e-09
-4.69463e-08
9.5232e-09
-5.67853e-08
9.83902e-09
-6.67408e-08
9.95546e-09
-7.66256e-08
9.88477e-09
-8.62655e-08
9.63998e-09
-9.55001e-08
9.23461e-09
-1.04183e-07
8.68246e-09
-1.1218e-07
7.99747e-09
-1.19374e-07
7.19369e-09
-1.25659e-07
6.28528e-09
-1.30945e-07
5.28649e-09
-1.35157e-07
4.2118e-09
-1.38233e-07
3.07591e-09
-1.40127e-07
1.89386e-09
6.8113e-10
1.24528e-09
-2.43106e-09
1.44154e-09
-1.4331e-09
-1.16391e-09
2.50675e-09
-7.37662e-09
7.68872e-09
-1.74461e-08
1.32002e-08
-3.12643e-08
1.85157e-08
-4.85063e-08
2.33366e-08
-6.87235e-08
2.75014e-08
-9.14011e-08
3.093e-08
-1.15995e-07
3.35908e-08
-1.41953e-07
3.5482e-08
-1.68736e-07
3.66212e-08
-1.95818e-07
3.70379e-08
-2.22703e-07
3.67698e-08
-2.48923e-07
3.58599e-08
-2.74043e-07
3.43548e-08
-2.97664e-07
3.23033e-08
-3.19422e-07
2.97557e-08
-3.38992e-07
2.67638e-08
-3.56087e-07
2.338e-08
-3.70458e-07
1.9658e-08
-3.81898e-07
1.56522e-08
-3.90241e-07
1.14182e-08
-3.9536e-07
7.01295e-09
2.49483e-09
1.52548e-10
-2.5836e-09
-2.40396e-09
1.12342e-09
-9.33932e-09
9.44214e-09
-2.14891e-08
1.98385e-08
-3.91187e-08
3.08298e-08
-6.20819e-08
4.14789e-08
-8.99503e-08
5.12049e-08
-1.22113e-07
5.96643e-08
-1.5785e-07
6.66671e-08
-1.96382e-07
7.21223e-08
-2.36904e-07
7.60043e-08
-2.78615e-07
7.83319e-08
-3.20731e-07
7.91536e-08
-3.62499e-07
7.85383e-08
-4.03209e-07
7.65693e-08
-4.42194e-07
7.33396e-08
-4.78839e-07
6.89489e-08
-5.12585e-07
6.3502e-08
-5.42929e-07
5.71075e-08
-5.69426e-07
4.98768e-08
-5.91692e-07
4.19241e-08
-6.09406e-07
3.3366e-08
-6.2231e-07
2.43221e-08
-6.30211e-07
1.49146e-08
5.26898e-09
-1.37598e-09
-1.20759e-09
-7.51272e-09
7.26016e-09
-1.96748e-08
2.16043e-08
-3.85018e-08
3.86655e-08
-6.41387e-08
5.64666e-08
-9.63375e-08
7.36778e-08
-1.34557e-07
8.94245e-08
-1.7805e-07
1.03157e-07
-2.25934e-07
1.14551e-07
-2.77245e-07
1.23433e-07
-3.30981e-07
1.2974e-07
-3.86132e-07
1.33483e-07
-4.41705e-07
1.34727e-07
-4.9674e-07
1.33573e-07
-5.50321e-07
1.30151e-07
-6.01591e-07
1.2461e-07
-6.49755e-07
1.17113e-07
-6.94085e-07
1.07832e-07
-7.33928e-07
9.69504e-08
-7.68705e-07
8.46538e-08
-7.97917e-07
7.11354e-08
-8.21144e-07
5.65932e-08
-8.38052e-07
4.12301e-08
-8.48391e-07
2.5254e-08
8.87835e-09
-3.01483e-09
1.80725e-09
-1.30856e-08
1.73309e-08
-3.09219e-08
3.94405e-08
-5.6832e-08
6.45756e-08
-9.07394e-08
9.0374e-08
-1.32232e-07
1.1517e-07
-1.80627e-07
1.3782e-07
-2.35038e-07
1.57568e-07
-2.94436e-07
1.73949e-07
-3.57701e-07
1.86699e-07
-4.23668e-07
1.95707e-07
-4.91155e-07
2.00971e-07
-5.58997e-07
2.02568e-07
-6.2606e-07
2.00636e-07
-6.91264e-07
1.95354e-07
-7.53589e-07
1.86935e-07
-8.12088e-07
1.75612e-07
-8.65896e-07
1.6164e-07
-9.14229e-07
1.45284e-07
-9.56397e-07
1.26821e-07
-9.91801e-07
1.0654e-07
-1.01994e-06
8.47333e-08
-1.04042e-06
6.17055e-08
-1.05293e-06
3.77671e-08
1.32369e-08
-4.63077e-09
6.43801e-09
-1.87125e-08
3.14126e-08
-4.23771e-08
6.31052e-08
-7.55345e-08
9.77329e-08
-1.17822e-07
1.32661e-07
-1.68611e-07
1.6596e-07
-2.27045e-07
1.96254e-07
-2.92083e-07
2.22607e-07
-3.62551e-07
2.44416e-07
-4.37184e-07
2.61332e-07
-5.1467e-07
2.73193e-07
-5.93682e-07
2.79983e-07
-6.72908e-07
2.81793e-07
-7.51069e-07
2.78797e-07
-8.26944e-07
2.71229e-07
-8.99379e-07
2.5937e-07
-9.67302e-07
2.43534e-07
-1.02973e-06
2.24064e-07
-1.08576e-06
2.01322e-07
-1.13463e-06
1.75687e-07
-1.17564e-06
1.47552e-07
-1.20823e-06
1.17323e-07
-1.23194e-06
8.54157e-08
-1.24643e-06
5.22594e-08
1.8293e-08
-6.17224e-09
1.26102e-08
-2.41997e-08
4.944e-08
-5.36723e-08
9.25778e-08
-9.40826e-08
1.38143e-07
-1.44746e-07
1.83324e-07
-2.04783e-07
2.25997e-07
-2.73132e-07
2.64603e-07
-3.48582e-07
2.98056e-07
-4.29801e-07
3.25636e-07
-5.15383e-07
3.46914e-07
-6.03878e-07
3.61688e-07
-6.93826e-07
3.69931e-07
-7.83784e-07
3.71752e-07
-8.72352e-07
3.67365e-07
-9.58186e-07
3.57063e-07
-1.04002e-06
3.41203e-07
-1.11667e-06
3.20185e-07
-1.18706e-06
2.94451e-07
-1.2502e-06
2.64466e-07
-1.30523e-06
2.30722e-07
-1.35141e-06
1.93728e-07
-1.3881e-06
1.54012e-07
-1.4148e-06
1.12115e-07
-1.43114e-06
6.8596e-08
2.40252e-08
-7.62733e-09
2.02375e-08
-2.94751e-08
7.12878e-08
-6.46463e-08
1.27749e-07
-1.12225e-07
1.85721e-07
-1.7119e-07
2.42289e-07
-2.40388e-07
2.95195e-07
-3.18534e-07
3.42749e-07
-4.04224e-07
3.83745e-07
-4.95961e-07
4.17373e-07
-5.92191e-07
4.43144e-07
-6.91328e-07
4.60825e-07
-7.91787e-07
4.7039e-07
-8.92006e-07
4.71971e-07
-9.90471e-07
4.6583e-07
-1.08574e-06
4.52327e-07
-1.17643e-06
4.319e-07
-1.26129e-06
4.05045e-07
-1.33915e-06
3.72306e-07
-1.40894e-06
3.34264e-07
-1.46975e-06
2.91529e-07
-1.52076e-06
2.44737e-07
-1.56129e-06
1.94546e-07
-1.59081e-06
1.41632e-07
-1.60891e-06
8.66919e-08
3.04389e-08
-9.00197e-09
2.92395e-08
-3.45305e-08
9.68162e-08
-7.52568e-08
1.68475e-07
-1.29876e-07
2.40341e-07
-1.97034e-07
3.09447e-07
-2.7529e-07
3.73452e-07
-3.63118e-07
4.30578e-07
-4.58909e-07
4.79535e-07
-5.60989e-07
5.19453e-07
-6.67649e-07
5.49804e-07
-7.77166e-07
5.70342e-07
-8.8783e-07
5.81053e-07
-9.97966e-07
5.82107e-07
-1.10596e-06
5.73822e-07
-1.21027e-06
5.56634e-07
-1.30943e-06
5.31069e-07
-1.40212e-06
4.97726e-07
-1.48707e-06
4.57263e-07
-1.56319e-06
4.1038e-07
-1.62948e-06
3.57816e-07
-1.68508e-06
3.00339e-07
-1.72928e-06
2.38744e-07
-1.7615e-06
1.73852e-07
-1.78131e-06
1.06503e-07
3.75623e-08
-1.03092e-08
3.95487e-08
-3.93889e-08
1.25896e-07
-8.55265e-08
2.14613e-07
-1.47053e-07
3.01868e-07
-2.22284e-07
3.84677e-07
-3.09492e-07
4.6066e-07
-4.06898e-07
5.27983e-07
-5.12676e-07
5.85313e-07
-6.24967e-07
6.31744e-07
-7.41898e-07
6.66735e-07
-8.61605e-07
6.90049e-07
-9.82253e-07
7.01701e-07
-1.10206e-06
7.01913e-07
-1.21931e-06
6.91071e-07
-1.33237e-06
6.69698e-07
-1.43972e-06
6.38418e-07
-1.53994e-06
5.97944e-07
-1.63173e-06
5.49051e-07
-1.71392e-06
4.92569e-07
-1.78547e-06
4.2937e-07
-1.8455e-06
3.60363e-07
-1.89324e-06
2.86486e-07
-1.92809e-06
2.08708e-07
-1.94961e-06
1.28021e-07
4.54438e-08
-1.15641e-08
5.11128e-08
-4.40878e-08
1.5842e-07
-9.55113e-08
2.66036e-07
-1.63823e-07
3.7018e-07
-2.47019e-07
4.67874e-07
-3.43083e-07
5.56723e-07
-4.49977e-07
6.34878e-07
-5.65652e-07
7.00988e-07
-6.88053e-07
7.54145e-07
-8.15137e-07
7.9382e-07
-9.44896e-07
8.19807e-07
-1.07537e-06
8.32172e-07
-1.20466e-06
8.31205e-07
-1.33096e-06
8.17376e-07
-1.45257e-06
7.91305e-07
-1.56788e-06
7.5373e-07
-1.67542e-06
7.05482e-07
-1.77383e-06
6.47466e-07
-1.86191e-06
5.80647e-07
-1.93858e-06
5.06037e-07
-2.00291e-06
4.2469e-07
-2.05411e-06
3.37694e-07
-2.09157e-06
2.46168e-07
-2.11481e-06
1.5126e-07
5.41493e-08
-1.27819e-08
6.38947e-08
-4.86697e-08
1.94307e-07
-1.05283e-07
3.22649e-07
-1.80284e-07
4.45181e-07
-2.71359e-07
5.58948e-07
-3.76201e-07
6.61565e-07
-4.92514e-07
7.51191e-07
-6.18015e-07
8.2649e-07
-7.50449e-07
8.86578e-07
-8.87597e-07
9.30969e-07
-1.0273e-06
9.5951e-07
-1.16747e-06
9.72341e-07
-1.3061e-06
9.69839e-07
-1.4413e-06
9.52576e-07
-1.57129e-06
9.21286e-07
-1.69438e-06
8.76829e-07
-1.80907e-06
8.20169e-07
-1.91395e-06
7.52346e-07
-2.00777e-06
6.7447e-07
-2.08944e-06
5.87699e-07
-2.15798e-06
4.93235e-07
-2.21261e-06
3.92318e-07
-2.25266e-06
2.86224e-07
-2.27766e-06
1.76258e-07
6.37592e-08
-1.39768e-08
7.78715e-08
-5.31772e-08
2.33508e-07
-1.14916e-07
3.84388e-07
-1.96543e-07
5.26808e-07
-2.95437e-07
6.57842e-07
-4.09005e-07
7.75133e-07
-5.34687e-07
8.76873e-07
-6.69963e-07
9.61766e-07
-8.1237e-07
1.02899e-06
-9.59511e-07
1.07811e-06
-1.10907e-06
1.10907e-06
-1.25883e-06
1.1221e-06
-1.40668e-06
1.11769e-06
-1.55064e-06
1.09653e-06
-1.68885e-06
1.05949e-06
-1.81958e-06
1.00756e-06
-1.94127e-06
9.41853e-07
-2.05247e-06
8.63551e-07
-2.15192e-06
7.73915e-07
-2.23847e-06
6.74255e-07
-2.31116e-06
5.65927e-07
-2.36917e-06
4.50327e-07
-2.41183e-06
3.28884e-07
-2.43864e-06
2.03064e-07
7.43656e-08
-1.51615e-08
9.3033e-08
-5.76507e-08
2.75997e-07
-1.24486e-07
4.51223e-07
-2.12708e-07
6.15031e-07
-3.19394e-07
7.64528e-07
-4.41661e-07
8.974e-07
-5.76682e-07
1.01189e-06
-7.21697e-07
1.10678e-06
-8.74028e-07
1.18132e-06
-1.0311e-06
1.23518e-06
-1.19043e-06
1.2684e-06
-1.34968e-06
1.28135e-06
-1.50663e-06
1.27464e-06
-1.6592e-06
1.24911e-06
-1.80548e-06
1.20577e-06
-1.9437e-06
1.14578e-06
-2.07223e-06
1.07038e-06
-2.18961e-06
9.80938e-07
-2.29456e-06
8.78856e-07
-2.38591e-06
7.65607e-07
-2.46268e-06
6.42701e-07
-2.52404e-06
5.1169e-07
-2.56932e-06
3.7416e-07
-2.59799e-06
2.31734e-07
8.60693e-08
-1.63475e-08
1.09381e-07
-6.21276e-08
3.21777e-07
-1.34062e-07
5.23157e-07
-2.28883e-07
7.09853e-07
-3.43363e-07
8.79008e-07
-4.74327e-07
1.02836e-06
-6.18676e-07
1.15624e-06
-7.73404e-07
1.26151e-06
-9.35616e-07
1.34353e-06
-1.10254e-06
1.4021e-06
-1.27156e-06
1.43741e-06
-1.44017e-06
1.44997e-06
-1.60608e-06
1.44055e-06
-1.76712e-06
1.41015e-06
-1.92131e-06
1.35996e-06
-2.06682e-06
1.29129e-06
-2.20203e-06
1.20558e-06
-2.32543e-06
1.10434e-06
-2.43573e-06
9.89152e-07
-2.53176e-06
8.61639e-07
-2.61253e-06
7.23475e-07
-2.67721e-06
5.76368e-07
-2.72511e-06
4.22059e-07
-2.7557e-06
2.62324e-07
9.89761e-08
-1.75451e-08
1.26926e-07
-6.6642e-08
3.70873e-07
-1.43709e-07
6.00224e-07
-2.45165e-07
8.11309e-07
-3.67471e-07
1.00131e-06
-5.07152e-07
1.16805e-06
-6.60831e-07
1.30992e-06
-8.25252e-07
1.42593e-06
-9.97295e-07
1.51557e-06
-1.174e-06
1.57881e-06
-1.35258e-06
1.61599e-06
-1.53043e-06
1.62782e-06
-1.70512e-06
1.61524e-06
-1.87442e-06
1.57946e-06
-2.0363e-06
1.52184e-06
-2.18891e-06
1.4439e-06
-2.33056e-06
1.34724e-06
-2.45979e-06
1.23357e-06
-2.57526e-06
1.10462e-06
-2.67582e-06
9.62203e-07
-2.76049e-06
8.08143e-07
-2.82842e-06
6.44302e-07
-2.87894e-06
4.72574e-07
-2.9115e-06
2.94883e-07
1.13193e-07
-1.87634e-08
1.45689e-07
-7.12246e-08
4.23335e-07
-1.53486e-07
6.82485e-07
-2.61643e-07
9.19466e-07
-3.91831e-07
1.1315e-06
-5.40269e-07
1.31648e-06
-7.03292e-07
1.47294e-06
-8.77383e-07
1.60002e-06
-1.0592e-06
1.69739e-06
-1.24558e-06
1.76519e-06
-1.43358e-06
1.80399e-06
-1.62046e-06
1.8147e-06
-1.80371e-06
1.79849e-06
-1.98103e-06
1.75678e-06
-2.15034e-06
1.69114e-06
-2.30974e-06
1.6033e-06
-2.45758e-06
1.49508e-06
-2.59235e-06
1.36834e-06
-2.71276e-06
1.22503e-06
-2.81766e-06
1.0671e-06
-2.90607e-06
8.96552e-07
-2.97716e-06
7.15396e-07
-3.03026e-06
5.25672e-07
-3.06482e-06
3.29446e-07
1.28824e-07
-2.00108e-08
1.657e-07
-7.59042e-08
4.79228e-07
-1.63449e-07
7.7003e-07
-2.78398e-07
1.03441e-06
-4.16549e-07
1.26965e-06
-5.73798e-07
1.47373e-06
-7.4618e-07
1.64533e-06
-9.29911e-07
1.78375e-06
-1.12141e-06
1.88888e-06
-1.31732e-06
1.96111e-06
-1.51455e-06
2.00122e-06
-1.71022e-06
2.01037e-06
-1.90174e-06
1.99001e-06
-2.08675e-06
1.94178e-06
-2.26312e-06
1.86751e-06
-2.42897e-06
1.76915e-06
-2.58262e-06
1.64873e-06
-2.72261e-06
1.50833e-06
-2.84764e-06
1.35006e-06
-2.9566e-06
1.17606e-06
-3.04854e-06
9.88492e-07
-3.12265e-06
7.89506e-07
-3.17826e-06
5.81283e-07
-3.21484e-06
3.66024e-07
1.45962e-07
-2.12953e-08
1.86995e-07
-8.0708e-08
5.38641e-07
-1.7365e-07
8.62972e-07
-2.95508e-07
1.15627e-06
-4.41722e-07
1.41587e-06
-6.07845e-07
1.63986e-06
-7.896e-07
1.82708e-06
-9.8292e-07
1.97707e-06
-1.18398e-06
2.08995e-06
-1.38924e-06
2.16636e-06
-1.59543e-06
2.2074e-06
-1.79956e-06
2.21451e-06
-1.99897e-06
2.18941e-06
-2.19123e-06
2.13404e-06
-2.37421e-06
2.0505e-06
-2.54604e-06
1.94098e-06
-2.70504e-06
1.80774e-06
-2.84979e-06
1.65308e-06
-2.97904e-06
1.47931e-06
-3.09172e-06
1.28874e-06
-3.1869e-06
1.08368e-06
-3.26382e-06
8.66424e-07
-3.32183e-06
6.39289e-07
-3.3604e-06
4.04593e-07
1.64687e-07
-2.26247e-08
2.0962e-07
-8.56627e-08
6.01679e-07
-1.84139e-07
9.61448e-07
-3.13047e-07
1.28518e-06
-4.6744e-07
1.57026e-06
-6.42507e-07
1.81492e-06
-8.33637e-07
2.01821e-06
-1.03647e-06
2.1799e-06
-1.24693e-06
2.30041e-06
-1.46127e-06
2.38071e-06
-1.67608e-06
2.4222e-06
-1.88825e-06
2.42668e-06
-2.09504e-06
2.3962e-06
-2.29401e-06
2.33302e-06
-2.48303e-06
2.23951e-06
-2.66022e-06
2.11817e-06
-2.82399e-06
1.9715e-06
-2.97294e-06
1.80203e-06
-3.10588e-06
1.61225e-06
-3.22181e-06
1.40467e-06
-3.31985e-06
1.18172e-06
-3.39929e-06
9.45864e-07
-3.45952e-06
6.9951e-07
-3.50001e-06
4.4509e-07
1.85052e-07
-2.40072e-08
2.33627e-07
-9.07963e-08
6.68468e-07
-1.9497e-07
1.06562e-06
-3.3109e-07
1.4213e-06
-4.93793e-07
1.73296e-06
-6.77874e-07
1.999e-06
-8.78363e-07
2.2187e-06
-1.09059e-06
2.39213e-06
-1.31022e-06
2.52005e-06
-1.53331e-06
2.60379e-06
-1.75628e-06
2.64517e-06
-1.97594e-06
2.64635e-06
-2.18949e-06
2.60975e-06
-2.39447e-06
2.538e-06
-2.58878e-06
2.43382e-06
-2.7706e-06
2.29999e-06
-2.93838e-06
2.13928e-06
-3.0908e-06
1.95445e-06
-3.22678e-06
1.74823e-06
-3.34537e-06
1.52325e-06
-3.44579e-06
1.28214e-06
-3.52736e-06
1.02744e-06
-3.58954e-06
7.6169e-07
-3.63185e-06
4.87393e-07
2.07081e-07
-2.54521e-08
2.59079e-07
-9.61398e-08
7.39155e-07
-2.06199e-07
1.17568e-06
-3.4972e-07
1.56482e-06
-5.20876e-07
1.90412e-06
-7.14034e-07
2.19216e-06
-9.23839e-07
2.42851e-06
-1.14529e-06
2.61358e-06
-1.37379e-06
2.74855e-06
-1.60517e-06
2.83518e-06
-1.83573e-06
2.87572e-06
-2.06218e-06
2.8728e-06
-2.2817e-06
2.82927e-06
-2.49183e-06
2.74814e-06
-2.69052e-06
2.63251e-06
-2.87602e-06
2.48549e-06
-3.04687e-06
2.31014e-06
-3.20189e-06
2.10947e-06
-3.34007e-06
1.88641e-06
-3.46058e-06
1.64377e-06
-3.56274e-06
1.3843e-06
-3.64597e-06
1.11067e-06
-3.70976e-06
8.25479e-07
-3.75368e-06
5.31314e-07
2.30753e-07
-2.69699e-08
2.86049e-07
-1.01729e-07
8.13914e-07
-2.17893e-07
1.29185e-06
-3.69027e-07
1.71596e-06
-5.48792e-07
2.08388e-06
-7.51082e-07
2.39445e-06
-9.70125e-07
2.64755e-06
-1.20057e-06
2.84402e-06
-1.43753e-06
2.98551e-06
-1.67663e-06
3.07429e-06
-1.91405e-06
3.11313e-06
-2.14642e-06
3.10517e-06
-2.37091e-06
3.05376e-06
-2.58512e-06
2.96234e-06
-2.78705e-06
2.83444e-06
-2.97508e-06
2.67352e-06
-3.14788e-06
2.48294e-06
-3.3044e-06
2.26599e-06
-3.44377e-06
2.02577e-06
-3.56529e-06
1.7653e-06
-3.66842e-06
1.48743e-06
-3.75266e-06
1.19491e-06
-3.8176e-06
8.90422e-07
-3.86287e-06
5.76583e-07
2.55996e-07
-2.85736e-08
3.14623e-07
-1.07606e-07
8.92947e-07
-2.30132e-07
1.41437e-06
-3.89119e-07
1.87494e-06
-5.77661e-07
2.27243e-06
-7.89125e-07
2.60592e-06
-1.01728e-06
2.8757e-06
-1.25639e-06
3.08313e-06
-1.50128e-06
3.2304e-06
-1.74739e-06
3.32039e-06
-1.99074e-06
3.35649e-06
-2.22796e-06
3.34239e-06
-2.4562e-06
3.282e-06
-2.67317e-06
3.17931e-06
-2.87697e-06
3.03825e-06
-3.06614e-06
2.86268e-06
-3.23951e-06
2.65632e-06
-3.3962e-06
2.42268e-06
-3.53553e-06
2.1651e-06
-3.65697e-06
1.88674e-06
-3.7601e-06
1.59056e-06
-3.84458e-06
1.27939e-06
-3.9101e-06
9.5594e-07
-3.95635e-06
6.22835e-07
2.82672e-07
-3.02793e-08
3.44902e-07
-1.13825e-07
9.76492e-07
-2.43011e-07
1.54356e-06
-4.10131e-07
2.04206e-06
-6.0763e-07
2.46993e-06
-8.28287e-07
2.82657e-06
-1.06536e-06
3.11278e-06
-1.31272e-06
3.33049e-06
-1.56488e-06
3.48256e-06
-1.81707e-06
3.57258e-06
-2.06522e-06
3.60464e-06
-2.30594e-06
3.58311e-06
-2.53647e-06
3.51253e-06
-2.75459e-06
3.39743e-06
-2.95861e-06
3.24227e-06
-3.14724e-06
3.05131e-06
-3.31953e-06
2.82861e-06
-3.47482e-06
2.57797e-06
-3.61264e-06
2.30292e-06
-3.73267e-06
2.00676e-06
-3.83466e-06
1.69256e-06
-3.91844e-06
1.36317e-06
-3.98382e-06
1.02132e-06
-4.03058e-06
6.69597e-07
3.10565e-07
-3.21076e-08
3.7701e-07
-1.20454e-07
1.06484e-06
-2.56653e-07
1.67976e-06
-4.32226e-07
2.21764e-06
-6.38877e-07
2.67658e-06
-8.68722e-07
3.05642e-06
-1.11446e-06
3.35852e-06
-1.36951e-06
3.58553e-06
-1.62808e-06
3.74113e-06
-1.88521e-06
3.82972e-06
-2.13677e-06
3.85619e-06
-2.37937e-06
3.82572e-06
-2.61037e-06
3.74353e-06
-2.82775e-06
3.6148e-06
-3.03e-06
3.44452e-06
-3.2161e-06
3.23741e-06
-3.38536e-06
2.99788e-06
-3.53739e-06
2.72999e-06
-3.67197e-06
2.4375e-06
-3.78902e-06
2.12381e-06
-3.88852e-06
1.79206e-06
-3.97047e-06
1.44512e-06
-4.03482e-06
1.08567e-06
-4.0815e-06
7.1627e-07
3.39369e-07
-3.4085e-08
4.11095e-07
-1.27578e-07
1.15833e-06
-2.71215e-07
1.82339e-06
-4.55614e-07
2.40203e-06
-6.7163e-07
2.89259e-06
-9.10618e-07
3.29541e-06
-1.16465e-06
3.61255e-06
-1.42668e-06
3.84756e-06
-1.69059e-06
4.00504e-06
-1.95125e-06
4.09038e-06
-2.20449e-06
4.10943e-06
-2.44702e-06
4.06824e-06
-2.67634e-06
3.97285e-06
-2.89068e-06
3.82914e-06
-3.08882e-06
3.64267e-06
-3.27005e-06
3.41864e-06
-3.43401e-06
3.16183e-06
-3.5806e-06
2.87659e-06
-3.70993e-06
2.56682e-06
-3.82218e-06
2.23606e-06
-3.9176e-06
1.88747e-06
-3.99639e-06
1.5239e-06
-4.05869e-06
1.14798e-06
-4.10455e-06
7.62124e-07
3.68679e-07
-3.6246e-08
4.47341e-07
-1.3531e-07
1.2574e-06
-2.86894e-07
1.97498e-06
-4.8056e-07
2.5957e-06
-7.06167e-07
3.1182e-06
-9.54208e-07
3.54345e-06
-1.21606e-06
3.8744e-06
-1.48414e-06
4.11565e-06
-1.75205e-06
4.27294e-06
-2.01449e-06
4.35283e-06
-2.26733e-06
4.36226e-06
-2.5074e-06
4.30832e-06
-2.73248e-06
4.19793e-06
-2.94108e-06
4.03774e-06
-3.13238e-06
3.83396e-06
-3.30601e-06
3.59227e-06
-3.46201e-06
3.31783e-06
-3.60066e-06
3.01524e-06
-3.72242e-06
2.68858e-06
-3.8278e-06
2.34144e-06
-3.9173e-06
1.97698e-06
-3.99141e-06
1.598e-06
-4.05044e-06
1.20701e-06
-4.0946e-06
8.06284e-07
3.97975e-07
-3.86353e-08
4.85976e-07
-1.43794e-07
1.36256e-06
-3.03945e-07
2.13513e-06
-5.07396e-07
2.79915e-06
-7.42841e-07
3.35365e-06
-9.99771e-07
3.80037e-06
-1.26878e-06
4.14341e-06
-1.54176e-06
4.38862e-06
-1.81197e-06
4.54316e-06
-2.07406e-06
4.61492e-06
-2.32395e-06
4.61216e-06
-2.55873e-06
4.5431e-06
-2.77652e-06
4.41571e-06
-2.97622e-06
4.23745e-06
-3.15747e-06
4.0152e-06
-3.32036e-06
3.75516e-06
-3.46538e-06
3.46285e-06
-3.59324e-06
3.14311e-06
-3.7048e-06
2.80014e-06
-3.80094e-06
2.43757e-06
-3.88248e-06
2.05852e-06
-3.95015e-06
1.66568e-06
-4.00452e-06
1.26139e-06
-4.04597e-06
8.47728e-07
4.26621e-07
-4.13115e-08
5.27287e-07
-1.53215e-07
1.47446e-06
-3.22693e-07
2.30461e-06
-5.36545e-07
3.013e-06
-7.82082e-07
3.59918e-06
-1.04764e-06
4.06593e-06
-1.32294e-06
4.41871e-06
-1.5993e-06
4.66499e-06
-1.86972e-06
4.81358e-06
-2.12881e-06
4.87401e-06
-2.3727e-06
4.85604e-06
-2.59881e-06
4.76921e-06
-2.8057e-06
4.6226e-06
-2.99283e-06
4.42458e-06
-3.16034e-06
4.18271e-06
-3.3089e-06
3.90372e-06
-3.43951e-06
3.59346e-06
-3.55339e-06
3.25698e-06
-3.65182e-06
2.89857e-06
-3.73608e-06
2.52183e-06
-3.80736e-06
2.1298e-06
-3.86667e-06
1.72499e-06
-3.91482e-06
1.30954e-06
-3.95238e-06
8.85288e-07
4.53859e-07
-4.43517e-08
5.71639e-07
-1.63815e-07
1.59392e-06
-3.43554e-07
2.48434e-06
-5.68533e-07
3.23798e-06
-8.24412e-07
3.85506e-06
-1.09819e-06
4.33971e-06
-1.37861e-06
4.69914e-06
-1.65643e-06
4.94281e-06
-1.92443e-06
5.08157e-06
-2.17729e-06
5.12688e-06
-2.41147e-06
5.09022e-06
-2.62489e-06
4.98263e-06
-2.81669e-06
4.81441e-06
-2.98698e-06
4.59487e-06
-3.13656e-06
4.3323e-06
-3.26674e-06
4.0339e-06
-3.37912e-06
3.70585e-06
-3.47546e-06
3.35332e-06
-3.55754e-06
2.98065e-06
-3.62705e-06
2.59135e-06
-3.68556e-06
2.18831e-06
-3.7344e-06
1.77382e-06
-3.77462e-06
1.34977e-06
-3.807e-06
9.17665e-07
4.78816e-07
-4.78572e-08
6.19496e-07
-1.75908e-07
1.72197e-06
-3.67057e-07
2.67549e-06
-6.04014e-07
3.47494e-06
-8.70453e-07
4.1215e-06
-1.15182e-06
4.62107e-06
-1.43581e-06
4.98312e-06
-1.7126e-06
5.21961e-06
-1.97487e-06
5.34383e-06
-2.21754e-06
5.36955e-06
-2.43757e-06
5.31024e-06
-2.63353e-06
5.1786e-06
-2.80536e-06
4.98623e-06
-2.95394e-06
4.74345e-06
-3.08086e-06
4.45922e-06
-3.18815e-06
4.1412e-06
-3.2781e-06
3.79579e-06
-3.35304e-06
3.42827e-06
-3.41528e-06
3.04289e-06
-3.46698e-06
2.64304e-06
-3.51005e-06
2.23138e-06
-3.54615e-06
1.80992e-06
-3.57661e-06
1.38022e-06
-3.60239e-06
9.43448e-07
5.00512e-07
-5.1963e-08
6.71459e-07
-1.89904e-07
1.85991e-06
-3.93879e-07
2.87947e-06
-6.43794e-07
3.72485e-06
-9.20927e-07
4.39863e-06
-1.20892e-06
4.90907e-06
-1.49436e-06
5.26856e-06
-1.76692e-06
5.49217e-06
-2.01932e-06
5.59623e-06
-2.24694e-06
5.59718e-06
-2.44747e-06
5.51077e-06
-2.62041e-06
5.35154e-06
-2.76662e-06
5.13245e-06
-2.88797e-06
4.8648e-06
-2.98696e-06
4.5582e-06
-3.06642e-06
4.22067e-06
-3.12939e-06
3.85875e-06
-3.17882e-06
3.4777e-06
-3.21757e-06
3.08163e-06
-3.24822e-06
2.6737e-06
-3.27308e-06
2.25624e-06
-3.29412e-06
1.83096e-06
-3.3129e-06
1.399e-06
-3.3306e-06
9.61152e-07
5.17887e-07
-5.68497e-08
7.28309e-07
-2.0634e-07
2.0094e-06
-4.24879e-07
3.09801e-06
-6.88853e-07
3.98883e-06
-9.76634e-07
4.68642e-06
-1.26981e-06
5.20224e-06
-1.5538e-06
5.55255e-06
-1.81795e-06
5.75632e-06
-2.05527e-06
5.83354e-06
-2.2619e-06
5.80381e-06
-2.43657e-06
5.68544e-06
-2.57996e-06
5.49492e-06
-2.69413e-06
5.24662e-06
-2.78209e-06
4.95275e-06
-2.84735e-06
4.62346e-06
-2.89368e-06
4.267e-06
-2.92486e-06
3.88993e-06
-2.94451e-06
3.49735e-06
-2.956e-06
3.09312e-06
-2.96236e-06
2.68005e-06
-2.96624e-06
2.26012e-06
-2.96987e-06
1.83459e-06
-2.97506e-06
1.4042e-06
-2.98318e-06
9.69273e-07
5.29838e-07
-6.27623e-08
7.91071e-07
-2.25925e-07
2.17257e-06
-4.61152e-07
3.33323e-06
-7.40363e-07
4.26804e-06
-1.03841e-06
4.98447e-06
-1.33458e-06
5.49841e-06
-1.61317e-06
5.83114e-06
-1.86345e-06
6.00661e-06
-2.07911e-06
6.0492e-06
-2.25749e-06
5.98219e-06
-2.39875e-06
5.8267e-06
-2.50506e-06
5.60123e-06
-2.57994e-06
5.32151e-06
-2.62772e-06
5.00053e-06
-2.65306e-06
4.6488e-06
-2.66069e-06
4.27463e-06
-2.65516e-06
3.88441e-06
-2.64074e-06
3.48293e-06
-2.62127e-06
3.07365e-06
-2.60017e-06
2.65896e-06
-2.58039e-06
2.24034e-06
-2.56439e-06
1.81859e-06
-2.55418e-06
1.39399e-06
-2.55127e-06
9.66363e-07
5.35266e-07
-7.00386e-08
8.6111e-07
-2.49603e-07
2.35213e-06
-5.04083e-07
3.58771e-06
-7.9969e-07
4.56365e-06
-1.10703e-06
5.2918e-06
-1.40286e-06
5.79424e-06
-1.6706e-06
6.09888e-06
-1.89988e-06
6.23589e-06
-2.08564e-06
6.23496e-06
-2.22695e-06
6.1235e-06
-2.32589e-06
5.92564e-06
-2.38652e-06
5.66187e-06
-2.4141e-06
5.34908e-06
-2.4144e-06
5.00083e-06
-2.39334e-06
4.62774e-06
-2.35661e-06
4.2379e-06
-2.30953e-06
3.83733e-06
-2.25691e-06
3.43031e-06
-2.20303e-06
3.01977e-06
-2.15159e-06
2.60752e-06
-2.10576e-06
2.19451e-06
-2.06817e-06
1.78101e-06
-2.04095e-06
1.36676e-06
-2.0257e-06
9.51118e-07
5.33146e-07
-7.91529e-08
9.40263e-07
-2.78643e-07
2.55162e-06
-5.55422e-07
3.86449e-06
-8.68354e-07
4.87658e-06
-1.18298e-06
5.60643e-06
-1.47348e-06
6.08474e-06
-1.72283e-06
6.34822e-06
-1.92177e-06
6.43483e-06
-2.06728e-06
6.38047e-06
-2.1609e-06
6.21712e-06
-2.20719e-06
5.97193e-06
-2.21252e-06
5.6672e-06
-2.18411e-06
5.32067e-06
-2.12935e-06
4.94607e-06
-2.05538e-06
4.55377e-06
-1.96884e-06
4.15136e-06
-1.87569e-06
3.74418e-06
-1.7812e-06
3.33582e-06
-1.68993e-06
2.9285e-06
-1.60578e-06
2.52336e-06
-1.53199e-06
2.12072e-06
-1.47127e-06
1.72028e-06
-1.42576e-06
1.32125e-06
-1.39714e-06
9.22497e-07
5.22608e-07
-9.07883e-08
1.03105e-06
-3.1477e-07
2.7756e-06
-6.17351e-07
4.16707e-06
-9.47912e-07
5.20714e-06
-1.2661e-06
5.92462e-06
-1.54377e-06
6.36241e-06
-1.76432e-06
6.56877e-06
-1.92075e-06
6.59125e-06
-2.01316e-06
6.47289e-06
-2.04645e-06
6.25041e-06
-2.02834e-06
5.95381e-06
-1.96787e-06
5.60673e-06
-1.87442e-06
5.22722e-06
-1.75702e-06
4.82868e-06
-1.62399e-06
4.42074e-06
-1.48274e-06
4.01011e-06
-1.33973e-06
3.60116e-06
-1.20048e-06
3.19657e-06
-1.06967e-06
2.79769e-06
-9.51185e-07
2.40488e-06
-8.48245e-07
2.01778e-06
-7.63464e-07
1.6355e-06
-6.98936e-07
1.25672e-06
-6.56287e-07
8.79848e-07
5.03036e-07
-1.05957e-07
1.13701e-06
-3.60357e-07
3.03e-06
-6.92525e-07
4.49924e-06
-1.03966e-06
5.55427e-06
-1.35487e-06
6.23983e-06
-1.60851e-06
6.61605e-06
-1.78596e-06
6.74623e-06
-1.88414e-06
6.68942e-06
-1.90771e-06
6.49646e-06
-1.86598e-06
6.20868e-06
-1.77044e-06
5.85828e-06
-1.63316e-06
5.46945e-06
-1.46572e-06
5.05978e-06
-1.27868e-06
4.64164e-06
-1.08131e-06
4.22338e-06
-8.81556e-07
3.81035e-06
-6.86074e-07
3.40568e-06
-5.00394e-07
3.01089e-06
-3.29051e-07
2.62635e-06
-1.75733e-07
2.25156e-06
-4.3424e-08
1.88547e-06
6.54807e-08
1.5266e-06
1.49075e-07
1.17313e-06
2.05868e-07
8.23055e-07
4.74174e-07
-1.26209e-07
1.26322e-06
-4.18683e-07
3.32248e-06
-7.84007e-07
4.86457e-06
-1.14394e-06
5.9142e-06
-1.44508e-06
6.54097e-06
-1.65814e-06
6.82911e-06
-1.77304e-06
6.86113e-06
-1.79293e-06
6.70931e-06
-1.72881e-06
6.43235e-06
-1.5955e-06
6.07537e-06
-1.40881e-06
5.67159e-06
-1.18391e-06
5.24454e-06
-9.34411e-07
4.81028e-06
-6.72074e-07
4.3793e-06
-4.06723e-07
3.95803e-06
-1.46409e-07
3.55003e-06
1.02376e-07
3.1569e-06
3.34452e-07
2.77882e-06
5.45715e-07
2.41508e-06
7.32931e-07
2.06434e-06
8.93551e-07
1.72485e-06
1.02557e-06
1.39458e-06
1.12739e-06
1.07131e-06
1.19776e-06
7.5268e-07
4.36232e-07
-1.53994e-07
1.41721e-06
-4.94271e-07
3.66275e-06
-8.94892e-07
5.26519e-06
-1.25879e-06
6.2781e-06
-1.52751e-06
6.80969e-06
-1.67587e-06
6.97747e-06
-1.7022e-06
6.88746e-06
-1.61896e-06
6.62607e-06
-1.44545e-06
6.25884e-06
-1.2029e-06
5.83282e-06
-9.11648e-07
5.38033e-06
-5.89665e-07
4.92256e-06
-2.52089e-07
4.47271e-06
8.87766e-08
4.03844e-06
4.23175e-07
3.62363e-06
7.43515e-07
3.22969e-06
1.04397e-06
2.85644e-06
1.32013e-06
2.50266e-06
1.56865e-06
2.16656e-06
1.78702e-06
1.84597e-06
1.97334e-06
1.53854e-06
2.12615e-06
1.24177e-06
2.2443e-06
9.53151e-07
2.32689e-06
6.70096e-07
3.8999e-07
-1.93295e-07
1.61051e-06
-5.93188e-07
4.06265e-06
-1.02713e-06
5.69913e-06
-1.37695e-06
6.62792e-06
-1.58378e-06
7.01652e-06
-1.63304e-06
7.02673e-06
-1.53704e-06
6.79146e-06
-1.32117e-06
6.41021e-06
-1.01476e-06
5.95242e-06
-6.45837e-07
5.4639e-06
-2.38753e-07
4.97325e-06
1.86593e-07
4.49721e-06
6.14594e-07
4.04471e-06
1.03337e-06
3.61966e-06
1.43412e-06
3.22288e-06
1.81043e-06
2.85339e-06
2.15772e-06
2.50914e-06
2.47279e-06
2.18759e-06
2.75341e-06
1.88594e-06
2.99805e-06
1.60133e-06
3.20565e-06
1.33094e-06
3.37544e-06
1.07198e-06
3.50684e-06
8.21747e-07
3.59935e-06
5.77588e-07
3.36867e-07
-2.50671e-07
1.86118e-06
-7.22889e-07
4.53486e-06
-1.17842e-06
6.15467e-06
-1.48004e-06
6.92954e-06
-1.57902e-06
7.1155e-06
-1.48182e-06
6.92952e-06
-1.22181e-06
6.53145e-06
-8.40784e-07
6.02918e-06
-3.78811e-07
5.49045e-06
1.30134e-07
4.95496e-06
6.59275e-07
4.44411e-06
1.18855e-06
3.96794e-06
1.70348e-06
3.52977e-06
2.194e-06
3.12914e-06
2.6533e-06
2.76358e-06
3.07697e-06
2.42971e-06
3.46231e-06
2.12381e-06
3.80773e-06
1.84217e-06
4.11242e-06
1.58125e-06
4.37605e-06
1.3377e-06
4.59854e-06
1.10845e-06
4.77991e-06
8.90601e-07
4.92021e-06
6.81445e-07
5.0194e-06
4.784e-07
2.78959e-07
-3.36761e-07
2.19794e-06
-8.90208e-07
5.08831e-06
-1.33446e-06
6.59892e-06
-1.52694e-06
7.12201e-06
-1.44941e-06
7.03797e-06
-1.14421e-06
6.62432e-06
-6.73101e-07
6.06035e-06
-9.58457e-08
5.45192e-06
5.38387e-07
4.85621e-06
1.19265e-06
4.30069e-06
1.84086e-06
3.7959e-06
2.46552e-06
3.34328e-06
3.05549e-06
2.93981e-06
3.60409e-06
2.58054e-06
4.1077e-06
2.25998e-06
4.56469e-06
1.97272e-06
4.97471e-06
1.71379e-06
5.33815e-06
1.47873e-06
5.65581e-06
1.26359e-06
5.92865e-06
1.06487e-06
6.15762e-06
8.79481e-07
6.34357e-06
7.04646e-07
6.48718e-06
5.37834e-07
6.58888e-06
3.76699e-07
2.19005e-07
-4.67162e-07
2.6651e-06
-1.09305e-06
5.7142e-06
-1.45063e-06
6.9565e-06
-1.4314e-06
7.10278e-06
-1.08172e-06
6.68829e-06
-4.96672e-07
6.03928e-06
2.29907e-07
5.33377e-06
1.02369e-06
4.65814e-06
1.8323e-06
4.04761e-06
2.62168e-06
3.51131e-06
3.37129e-06
3.04629e-06
4.06977e-06
2.6448e-06
4.71174e-06
2.29784e-06
5.29552e-06
1.99676e-06
5.82164e-06
1.73386e-06
6.2918e-06
1.50256e-06
6.70828e-06
1.29731e-06
7.07355e-06
1.11346e-06
7.39001e-06
9.47126e-07
7.65988e-06
7.95007e-07
7.88506e-06
6.54293e-07
8.06717e-06
5.2254e-07
8.20743e-06
3.97578e-07
8.30669e-06
2.77437e-07
1.60273e-07
-6.56502e-07
3.3216e-06
-1.29241e-06
6.35011e-06
-1.41009e-06
7.07418e-06
-1.02135e-06
6.71404e-06
-2.82663e-07
5.9496e-06
6.48513e-07
5.1081e-06
1.65396e-06
4.32832e-06
2.65746e-06
3.65464e-06
3.61517e-06
3.08989e-06
4.50483e-06
2.62165e-06
5.31734e-06
2.23378e-06
6.05115e-06
1.91099e-06
6.70871e-06
1.64028e-06
7.29438e-06
1.41109e-06
7.8132e-06
1.21504e-06
8.27026e-06
1.0455e-06
8.67034e-06
8.9723e-07
9.01773e-06
7.66069e-07
9.3162e-06
6.48659e-07
9.56894e-06
5.42263e-07
9.77862e-06
4.4461e-07
9.94739e-06
3.53777e-07
1.00769e-05
2.68094e-07
1.01682e-05
1.86074e-07
1.06345e-07
-8.88026e-07
4.20963e-06
-1.33348e-06
6.79556e-06
-9.35249e-07
6.67595e-06
2.92076e-08
5.74958e-06
1.26084e-06
4.71797e-06
2.55945e-06
3.80949e-06
3.81265e-06
3.07513e-06
4.96751e-06
2.49978e-06
6.00566e-06
2.05174e-06
6.92645e-06
1.70085e-06
7.73733e-06
1.4229e-06
8.44868e-06
1.19964e-06
9.07133e-06
1.01763e-06
9.61538e-06
8.67039e-07
1.00898e-05
7.40619e-07
1.05023e-05
6.3299e-07
1.08594e-05
5.40092e-07
1.11667e-05
4.58819e-07
1.14286e-05
3.86752e-07
1.16489e-05
3.21973e-07
1.18306e-05
2.62925e-07
1.1976e-05
2.08319e-07
1.20871e-05
1.57056e-07
1.2165e-05
1.08172e-07
6.07878e-08
-1.01533e-06
5.22495e-06
-7.4786e-07
6.5281e-06
5.83991e-07
5.3441e-06
2.29991e-06
4.03366e-06
4.0195e-06
2.99838e-06
5.58461e-06
2.24438e-06
6.94869e-06
1.71105e-06
8.11535e-06
1.33313e-06
9.10674e-06
1.06035e-06
9.94896e-06
8.58629e-07
1.06662e-05
7.05656e-07
1.1279e-05
5.86813e-07
1.18043e-05
4.92399e-07
1.22554e-05
4.15855e-07
1.26434e-05
3.52638e-07
1.29769e-05
2.99531e-07
1.32628e-05
2.54199e-07
1.35067e-05
2.14909e-07
1.37131e-05
1.80345e-07
1.38856e-05
1.49486e-07
1.4027e-05
1.21519e-07
1.41395e-05
9.57814e-08
1.42249e-05
7.17161e-08
1.42842e-05
4.88395e-08
2.6716e-08
-2.34971e-07
5.45992e-06
1.80399e-06
4.48913e-06
4.40148e-06
2.74662e-06
6.72178e-06
1.71336e-06
8.60684e-06
1.11332e-06
1.00972e-05
7.53976e-07
1.12737e-05