/*--------------------------------*- C++ -*----------------------------------*\
| =========                 |                                                 |
| \\      /  F ield         | OpenFOAM: The Open Source CFD Toolbox           |
|  \\    /   O peration     | Version:  v2012                                 |
|   \\  /    A nd           | Website:  www.openfoam.com                      |
|    \\/     M anipulation  |                                                 |
\*---------------------------------------------------------------------------*/
FoamFile
{
    version     2.0;
    format      ascii;
    class       volScalarField;
    location    "0.35";
    object      p;
}
// * * * * * * * * * * * * * * * * * * * * * * * * * * * * * * * * * * * * * //

dimensions      [0 2 -2 0 0 0 0];


internalField   nonuniform List<scalar> 
1250
(
0.0372145
0.0438304
0.0503285
0.0566188
0.0626128
0.0682246
0.0733723
0.0779795
0.0819769
0.0853041
0.0879116
0.0897621
0.0908335
0.0911205
0.0906373
0.0894204
0.0875317
0.0850621
0.0821367
0.0789203
0.0756239
0.0725113
0.0699099
0.0682264
0.0677187
0.0369153
0.0428928
0.0487633
0.0544459
0.0598614
0.0649333
0.0695889
0.0737613
0.07739
0.0804233
0.0828195
0.0845488
0.0855954
0.085959
0.085657
0.0847268
0.0832284
0.0812464
0.0788933
0.076312
0.0736782
0.071199
0.0691138
0.0677148
0.0672112
0.0366764
0.0421779
0.0475813
0.0528127
0.0577999
0.0624731
0.0667666
0.0706197
0.0739783
0.0767965
0.0790377
0.0806768
0.0817011
0.0821126
0.081929
0.0811862
0.0799393
0.0782644
0.0762602
0.0740484
0.0717738
0.0696022
0.0677177
0.0663128
0.0655313
0.0364724
0.0416137
0.0466647
0.0515568
0.056223
0.0605984
0.0646222
0.0682383
0.0713968
0.0740554
0.0761807
0.0777497
0.0787512
0.079187
0.0790735
0.0784425
0.077343
0.0758413
0.0740219
0.0719867
0.0698539
0.0677589
0.0658468
0.0642118
0.0629153
0.0362733
0.0411168
0.0458774
0.0504908
0.0548941
0.0590266
0.062831
0.0662548
0.0692511
0.0717801
0.0738101
0.0753193
0.0762962
0.0767416
0.0766688
0.0761053
0.0750924
0.0736866
0.0719583
0.0699909
0.0678786
0.0657321
0.0636645
0.0616725
0.0597294
0.0360706
0.0406772
0.0452077
0.0496012
0.0537981
0.0577408
0.0613749
0.0646499
0.0675211
0.0699499
0.0719054
0.0733657
0.0743182
0.0747615
0.0747054
0.0741717
0.0731945
0.0718202
0.0701062
0.0681193
0.0659333
0.063639
0.061325
0.0588974
0.05625
0.0358554
0.0402856
0.0446459
0.0488782
0.0529251
0.0567311
0.0602437
0.0634138
0.0661974
0.0685564
0.0704597
0.0718841
0.0728153
0.0732488
0.0731902
0.0726557
0.0716719
0.0702758
0.0685134
0.0664369
0.0641035
0.0615888
0.0589643
0.0560551
0.0526872
0.0356159
0.0399272
0.0441744
0.0483012
0.0522519
0.0559722
0.0594104
0.062518
0.065251
0.0675709
0.0694452
0.070849
0.0717654
0.0721863
0.0721127
0.071555
0.0705329
0.0690747
0.0672163
0.0649978
0.0624629
0.059677
0.0566994
0.0532848
0.0492009
0.0353397
0.0395871
0.043776
0.047851
0.0517574
0.0554415
0.0588515
0.0619387
0.0646584
0.0669706
0.068841
0.0702423
0.0711543
0.0715649
0.0714703
0.0708753
0.0697928
0.0682434
0.0662544
0.063856
0.0610814
0.057989
0.0546311
0.0506999
0.0459129
0.0350131
0.0392504
0.0434344
0.0475104
0.0514238
0.0551205
0.0585485
0.061658
0.0644026
0.0667404
0.0686347
0.0700549
0.0709771
0.071385
0.0712698
0.0706307
0.0694743
0.0678144
0.0656709
0.063066
0.0600248
0.0566019
0.0528461
0.0483934
0.042917
0.0346217
0.0389017
0.0431336
0.0472628
0.0512342
0.054993
0.0584859
0.0616613
0.0644709
0.06687
0.0688188
0.0702831
0.0712349
0.071653
0.0715238
0.0708407
0.0696047
0.0678233
0.0655102
0.0626811
0.0593552
0.0555855
0.0514198
0.046443
0.0402872
0.0341496
0.0385247
0.0428574
0.0470922
0.0511731
0.0550441
0.0586499
0.0619369
0.0648539
0.0673529
0.0693905
0.0709283
0.0719336
0.0723805
0.0722498
0.0715296
0.0702152
0.0683087
0.0658183
0.0627546
0.0591322
0.0550044
0.0504201
0.0449159
0.0380852
0.0335796
0.0381026
0.042589
0.0469825
0.0512255
0.0552602
0.0590291
0.0624755
0.065545
0.0681861
0.0703507
0.0719958
0.0730839
0.0735834
0.0734699
0.0727258
0.071341
0.0693123
0.0666432
0.0633401
0.0594141
0.0549202
0.0499099
0.0438731
0.0363654
0.032893
0.0376171
0.0423113
0.0469176
0.0513767
0.0556286
0.0596128
0.0632695
0.0665402
0.0693691
0.0717034
0.0734948
0.0747
0.0752821
0.0752104
0.0744618
0.0730206
0.0708786
0.0680351
0.0644925
0.0602596
0.0553938
0.0499504
0.0433726
0.0351786
0.0320699
0.0370493
0.0420062
0.0468809
0.0516122
0.0561369
0.0603916
0.0643125
0.067837
0.070904
0.0734555
0.0754373
0.0768001
0.0775004
0.0775015
0.0767741
0.0752966
0.0730561
0.0700473
0.0662695
0.0617292
0.0564872
0.0506029
0.0434726
0.0345761
0.0310887
0.0363787
0.0416548
0.0468555
0.0519168
0.0567729
0.0613564
0.0655994
0.0694343
0.0727946
0.0756162
0.0778385
0.0794052
0.080266
0.0803774
0.0797032
0.078216
0.0758973
0.0727375
0.0687326
0.0638871
0.0582653
0.0519318
0.0442337
0.0346115
0.0299266
0.0355838
0.0412373
0.0468234
0.0522755
0.0575242
0.0624984
0.0671255
0.0713323
0.0750463
0.0781967
0.0807157
0.0825395
0.0836101
0.0838762
0.0832943
0.0818303
0.0794596
0.0761683
0.0719482
0.0668021
0.0607982
0.0540059
0.0457213
0.0353438
0.0285597
0.0346423
0.040733
0.0467661
0.0526721
0.0583782
0.0638088
0.0688863
0.0735315
0.0776655
0.0812099
0.0840888
0.0862302
0.0875673
0.0880401
0.0875971
0.0861962
0.0838064
0.0804082
0.0759893
0.07055
0.0641625
0.0569011
0.0480081
0.036839
0.0269635
0.0335309
0.0401206
0.0466646
0.0530905
0.0593218
0.0652786
0.0708775
0.0760334
0.0806597
0.08467
0.0879797
0.090507
0.0921757
0.0929159
0.0926664
0.0913766
0.0890075
0.0855332
0.0809364
0.0752146
0.0684432
0.0607019
0.0511753
0.0391724
0.0251131
0.0322263
0.0393784
0.0464993
0.0535138
0.0603417
0.0668985
0.0730951
0.0788395
0.0840372
0.088593
0.0924122
0.0954028
0.0974773
0.0985547
0.0985628
0.0974407
0.0951402
0.0916276
0.0868796
0.0808894
0.073736
0.0655039
0.0553154
0.0424304
0.0229844
0.0307055
0.0384849
0.0462507
0.0539251
0.0614244
0.0686591
0.0755346
0.0819515
0.0878068
0.0929955
0.0974123
0.100953
0.103518
0.105013
0.105353
0.104465
0.102291
0.0987858
0.0939196
0.0876801
0.080149
0.0714151
0.060534
0.0467126
0.0205547
0.0289466
0.0374194
0.0458998
0.0543078
0.0625563
0.0705512
0.0781919
0.0853714
0.0919779
0.0978957
0.103007
0.107196
0.110347
0.112351
0.11311
0.112535
0.110555
0.107113
0.10217
0.0957058
0.0878047
0.0785592
0.0669522
0.052134
0.0178039
0.0269299
0.036163
0.045429
0.0546462
0.0637245
0.0725656
0.0810628
0.0891015
0.0965604
0.103312
0.109227
0.114172
0.118018
0.120638
0.121915
0.121745
0.120039
0.116728
0.111758
0.105102
0.096843
0.0870775
0.0747091
0.0588274
0.0147161
0.0246393
0.0346995
0.0448227
0.054926
0.0649171
0.0746937
0.0841434
0.0931441
0.101564
0.109265
0.116102
0.121926
0.126589
0.129945
0.131856
0.132199
0.130863
0.127764
0.12283
0.116022
0.107424
0.0971323
0.0839651
0.0669463
0.0112809
0.0220635
0.0330171
0.0440687
0.0551356
0.0661238
0.0769281
0.0874307
0.097502
0.107001
0.115775
0.123665
0.130503
0.136121
0.140351
0.143031
0.144012
0.143161
0.14037
0.135549
0.128643
0.119731
0.10891
0.0949051
0.0766683
0.00749572
0.0191978
0.0311093
0.0431594
0.0552668
0.0673371
0.079263
0.0909223
0.102178
0.11288
0.122863
0.131949
0.139953
0.146682
0.151942
0.155545
0.157312
0.157081
0.154716
0.150103
0.143165
0.133974
0.122628
0.107743
0.0881988
0.00336744
0.0160462
0.028977
0.0420933
0.0553161
0.0685528
0.081695
0.0946173
0.107177
0.119214
0.130549
0.140988
0.150324
0.158339
0.16481
0.169515
0.17224
0.17279
0.170993
0.166703
0.159818
0.150398
0.138534
0.122728
0.101776
-0.00108514
0.0126229
0.0266302
0.040876
0.0552862
0.0697711
0.0842234
0.0985162
0.112502
0.126012
0.138854
0.150817
0.16167
0.171167
0.179051
0.185064
0.188951
0.190473
0.189416
0.185594
0.178868
0.169283
0.156919
0.140148
0.117677
-0.00582928
0.00895472
0.0240896
0.0395225
0.0551866
0.0709974
0.086851
0.102621
0.118158
0.133284
0.147797
0.161467
0.174039
0.185238
0.194768
0.202328
0.207614
0.210336
0.210228
0.207051
0.200622
0.190958
0.178123
0.160343
0.136227
-0.0108163
0.00508251
0.0213879
0.0380577
0.0550347
0.0722428
0.0895841
0.106936
0.124148
0.141038
0.157394
0.172968
0.187482
0.200626
0.212065
0.221448
0.228414
0.232611
0.233705
0.231394
0.225435
0.215805
0.202544
0.18371
0.157804
-0.0159798
0.00106273
0.0185713
0.0365176
0.0548568
0.0735246
0.0924326
0.111465
0.130475
0.149278
0.167655
0.185343
0.202039
0.217401
0.231049
0.242574
0.25155
0.257548
0.260156
0.258987
0.253719
0.244275
0.230656
0.210723
0.182858
-0.0212349
-0.00303188
0.0157001
0.0349494
0.0546877
0.0748657
0.0954089
0.116213
0.137137
0.158002
0.178583
0.198606
0.217746
0.235626
0.25182
0.265855
0.277231
0.285427
0.289931
0.29025
0.285957
0.276901
0.263021
0.241948
0.211924
-0.0264781
-0.00711253
0.0128477
0.0334112
0.0545696
0.0762933
0.0985261
0.12118
0.144127
0.167197
0.190166
0.212755
0.234619
0.255349
0.274469
0.291442
0.305677
0.316548
0.323419
0.325663
0.322716
0.314318
0.300318
0.278066
0.245647
-0.0315886
-0.0110758
0.0100995
0.0319697
0.0545506
0.0778368
0.101796
0.126361
0.151427
0.176836
0.202376
0.227765
0.25265
0.276592
0.299068
0.319469
0.337107
0.351231
0.361055
0.36578
0.364663
0.357287
0.343371
0.319915
0.284809
-0.0364312
-0.0148069
0.00754914
0.0306968
0.0546802
0.0795231
0.105223
0.131742
0.159001
0.18687
0.215153
0.243581
0.271797
0.299343
0.325654
0.350047
0.37173
0.389809
0.403316
0.411235
0.412584
0.406731
0.393195
0.368529
0.330381
-0.040861
-0.0181843
0.00529404
0.0296648
0.0550049
0.0813721
0.108799
0.137286
0.166791
0.197217
0.228402
0.2601
0.291965
0.323534
0.354208
0.383239
0.409725
0.432612
0.450716
0.462747
0.467413
0.463775
0.451056
0.425214
0.383579
-0.0447304
-0.0210869
0.00342793
0.0289392
0.0555603
0.0833883
0.112498
0.142935
0.174703
0.207755
0.241974
0.277156
0.312987
0.349016
0.384632
0.419033
0.451211
0.479941
0.503787
0.521126
0.530252
0.529799
0.51855
0.49164
0.445958
-0.0478988
-0.0234032
0.00203205
0.0285694
0.0563624
0.085552
0.116262
0.14859
0.182599
0.218303
0.255652
0.294503
0.334599
0.375533
0.416708
0.457297
0.496202
0.532026
0.563055
0.587259
0.602399
0.606514
0.597724
0.569997
0.519559
-0.0502428
-0.0250423
0.00116449
0.028579
0.0573975
0.0878092
0.119991
0.154104
0.190279
0.22861
0.269129
0.311785
0.35641
0.402678
0.450052
0.497722
0.544542
0.588961
0.628976
0.662082
0.685362
0.696036
0.691235
0.663207
0.60713
-0.0516696
-0.0259455
0.00084862
0.0289539
0.0586112
0.0900602
0.123537
0.159271
0.197475
0.238334
0.28199
0.328513
0.377863
0.429847
0.484048
0.539744
0.595808
0.650599
0.701841
0.746509
0.780855
0.80099
0.802581
0.775278
0.712497
-0.0521295
-0.0260989
0.00106162
0.0296321
0.0598978
0.0921501
0.126687
0.163813
0.20383
0.247033
0.293694
0.344037
0.398199
0.456182
0.517773
0.582437
0.649183
0.71639
0.781603
0.841285
0.890725
0.924588
0.93641
0.911844
0.841204
-0.051628
-0.025544
0.00172482
0.0304947
0.061093
0.093862
0.129162
0.167374
0.208898
0.254151
0.303556
0.357523
0.416421
0.480518
0.549909
0.624387
0.703269
0.785156
0.867612
0.946724
1.01678
1.07066
1.09892
1.08102
1.00167
-0.0502348
-0.024385
0.00269772
0.0313613
0.0619706
0.0949146
0.130613
0.169522
0.212143
0.25902
0.310745
0.367946
0.431269
0.501333
0.578661
0.66355
0.755873
0.854773
0.958205
1.06224
1.16037
1.24355
1.29831
1.29476
1.20736
-0.0480887
-0.022792
0.00377723
0.0319915
0.0622459
0.0949684
0.130631
0.16976
0.21295
0.260875
0.314302
0.374095
0.441218
0.516718
0.601673
0.697093
0.803727
0.921723
1.05005
1.18553
1.32154
1.44747
1.54511
1.57103
1.48127
-0.045395
-0.020997
0.00470229
0.0320904
0.0615825
0.0936348
0.128758
0.167537
0.210646
0.258875
0.313158
0.374596
0.444491
0.524366
0.61597
0.721235
0.842152
0.980483
1.13715
1.31103
1.49708
1.68468
1.85151
1.93685
1.86472
-0.0424147
-0.0192792
0.00517302
0.0313328
0.0596227
0.0905116
0.124533
0.162306
0.204565
0.252187
0.306242
0.368042
0.439204
0.521733
0.618101
0.731323
0.864984
1.02314
1.2099
1.42826
1.67794
1.95233
2.22902
2.4309
2.43194
-0.0394485
-0.0179293
0.00490684
0.0294412
0.0560883
0.0853125
0.117647
0.153722
0.194292
0.240282
0.292846
0.353438
0.423922
0.506711
0.604952
0.722774
0.865576
1.04032
1.25569
1.52173
1.84814
2.23977
2.68371
3.10337
3.31484
-0.0368153
-0.0172459
0.0036241
0.0261525
0.0507298
0.0777957
0.10786
0.141526
0.179532
0.22279
0.272458
0.33003
0.397473
0.477425
0.573485
0.690658
0.835998
1.01953
1.25553
1.56431
1.97281
2.50869
3.1901
4.01477
4.80843
-0.0347753
-0.0176959
0.000645419
0.0205644
0.0424056
0.0665574
0.0934704
0.123681
0.157843
0.196774
0.241515
0.293424
0.354318
0.426676
0.513986
0.621293
0.756118
0.930002
1.16132
1.48062
1.9368
2.59636
3.5721
5.1944
7.6784
-0.0334307
-0.0195398
-0.00444943
0.0120927
0.0303608
0.0506623
0.073351
0.0988447
0.127649
0.160389
0.197854
0.241067
0.291381
0.350637
0.421419
0.507502
0.614666
0.75228
0.936875
1.20041
1.60434
2.26055
3.4718
6.35801
12.4032
)
;

boundaryField
{
    movingWall
    {
        type            zeroGradient;
    }
    fixedWalls
    {
        type            zeroGradient;
    }
    frontAndBack
    {
        type            empty;
    }
    procBoundary1to0
    {
        type            processor;
        value           nonuniform List<scalar> 
50
(
0.0305708
0.0309118
0.0311512
0.03131
0.0314114
0.0314489
0.0314135
0.0312967
0.0310884
0.0307766
0.0303476
0.0297861
0.0290749
0.0281949
0.0271253
0.0258437
0.0243261
0.0225475
0.020482
0.0181038
0.0153878
0.0123105
0.00885178
0.00499585
0.000733482
-0.00393611
-0.00900304
-0.0144443
-0.0202216
-0.0262788
-0.0325404
-0.0389099
-0.0452701
-0.0514833
-0.0573947
-0.0628368
-0.0676362
-0.0716229
-0.0746417
-0.0765652
-0.0773073
-0.0768371
-0.0751895
-0.0724719
-0.0688631
-0.0646064
-0.060013
-0.0554233
-0.0508917
-0.0463621
)
;
    }
}


// ************************************************************************* //
