/*--------------------------------*- C++ -*----------------------------------*\
| =========                 |                                                 |
| \\      /  F ield         | OpenFOAM: The Open Source CFD Toolbox           |
|  \\    /   O peration     | Version:  v2012                                 |
|   \\  /    A nd           | Website:  www.openfoam.com                      |
|    \\/     M anipulation  |                                                 |
\*---------------------------------------------------------------------------*/
FoamFile
{
    version     2.0;
    format      ascii;
    class       surfaceScalarField;
    location    "0.35";
    object      phi;
}
// * * * * * * * * * * * * * * * * * * * * * * * * * * * * * * * * * * * * * //

dimensions      [0 3 -1 0 0 0 0];
oriented        oriented;


internalField   nonuniform List<scalar> 
2425
(
-1.40573e-07
-5.49064e-10
-1.38795e-07
-1.7781e-09
-1.35806e-07
-2.98876e-09
-1.31642e-07
-4.1637e-09
-1.26357e-07
-5.28518e-09
-1.20022e-07
-6.3351e-09
-1.12727e-07
-7.29519e-09
-1.0458e-07
-8.14716e-09
-9.5707e-08
-8.87288e-09
-8.62523e-08
-9.45466e-09
-7.63768e-08
-9.87554e-09
-6.62573e-08
-1.01196e-08
-5.60851e-08
-1.01722e-08
-4.60645e-08
-1.00206e-08
-3.64102e-08
-9.65433e-09
-2.73445e-08
-9.06578e-09
-1.90933e-08
-8.25115e-09
-1.18814e-08
-7.2119e-09
-5.92406e-09
-5.95739e-09
-1.41404e-09
-4.51003e-09
1.50192e-09
-2.91596e-09
2.76736e-09
-1.26545e-09
2.49862e-09
2.68735e-10
1.17527e-09
1.32335e-09
1.17526e-09
-3.96541e-07
-2.0861e-09
-3.9166e-07
-6.65934e-09
-3.83488e-07
-1.11605e-08
-3.72127e-07
-1.55247e-08
-3.57726e-07
-1.9686e-08
-3.40484e-07
-2.35774e-08
-3.20648e-07
-2.71315e-08
-2.98513e-07
-3.02816e-08
-2.74424e-07
-3.29617e-08
-2.48771e-07
-3.51083e-08
-2.21985e-07
-3.6661e-08
-1.94541e-07
-3.7564e-08
-1.66945e-07
-3.77677e-08
-1.39735e-07
-3.72305e-08
-1.13469e-07
-3.59207e-08
-8.8715e-08
-3.38199e-08
-6.60395e-08
-3.09267e-08
-4.59882e-08
-2.72631e-08
-2.90608e-08
-2.28848e-08
-1.56728e-08
-1.78981e-08
-6.09851e-09
-1.24903e-08
-3.80833e-10
-6.98314e-09
1.80634e-09
-1.91845e-09
1.33526e-09
1.79442e-09
2.51052e-09
-6.32027e-07
-4.50765e-09
-6.24422e-07
-1.42634e-08
-6.11722e-07
-2.38609e-08
-5.94085e-07
-3.3162e-08
-5.71745e-07
-4.20261e-08
-5.45011e-07
-5.03116e-08
-5.14266e-07
-5.78764e-08
-4.79967e-07
-6.45799e-08
-4.42645e-07
-7.02846e-08
-4.02894e-07
-7.48586e-08
-3.61378e-07
-7.81775e-08
-3.18813e-07
-8.01283e-08
-2.75969e-07
-8.0612e-08
-2.33651e-07
-7.95483e-08
-1.92691e-07
-7.68807e-08
-1.53929e-07
-7.25828e-08
-1.18188e-07
-6.66674e-08
-8.62511e-08
-5.92e-08
-5.88182e-08
-5.03178e-08
-3.64557e-08
-4.02605e-08
-1.95255e-08
-2.94205e-08
-8.08789e-09
-1.84208e-08
-1.78085e-09
-8.2255e-09
3.30321e-10
-3.16752e-10
2.84084e-09
-8.50781e-07
-7.71555e-09
-8.40776e-07
-2.42686e-08
-8.24088e-07
-4.05487e-08
-8.00928e-07
-5.63221e-08
-7.71602e-07
-7.13519e-08
-7.36514e-07
-8.53996e-08
-6.96163e-07
-9.82271e-08
-6.51144e-07
-1.09599e-07
-6.0214e-07
-1.19288e-07
-5.49925e-07
-1.27074e-07
-4.95348e-07
-1.32754e-07
-4.39332e-07
-1.36144e-07
-3.82858e-07
-1.37086e-07
-3.26953e-07
-1.35454e-07
-2.72667e-07
-1.31166e-07
-2.21056e-07
-1.24194e-07
-1.73149e-07
-1.14574e-07
-1.29914e-07
-1.02435e-07
-9.22117e-08
-8.80204e-08
-6.07392e-08
-7.1733e-08
-3.59615e-08
-5.41981e-08
-1.80262e-08
-3.63561e-08
-6.67037e-09
-1.95813e-08
-1.12819e-09
-5.85893e-09
1.71265e-09
-1.05587e-06
-1.16151e-08
-1.04374e-06
-3.64004e-08
-1.02351e-06
-6.07736e-08
-9.95446e-07
-8.43869e-08
-9.5991e-07
-1.06889e-07
-9.17385e-07
-1.27925e-07
-8.68468e-07
-1.47144e-07
-8.13868e-07
-1.64199e-07
-7.54401e-07
-1.78755e-07
-6.90984e-07
-1.90491e-07
-6.24626e-07
-1.99112e-07
-5.56419e-07
-2.04351e-07
-4.87521e-07
-2.05984e-07
-4.19139e-07
-2.03836e-07
-3.52507e-07
-1.97798e-07
-2.88859e-07
-1.87842e-07
-2.29394e-07
-1.74039e-07
-1.75241e-07
-1.56588e-07
-1.27408e-07
-1.35853e-07
-8.673e-08
-1.12411e-07
-5.3806e-08
-8.71222e-08
-2.89357e-08
-6.12264e-08
-1.20583e-08
-3.64588e-08
-2.70828e-09
-1.5209e-08
-9.95628e-10
-1.24992e-06
-1.61134e-08
-1.2359e-06
-5.04225e-08
-1.21252e-06
-8.41608e-08
-1.18005e-06
-1.16851e-07
-1.13893e-06
-1.4801e-07
-1.0897e-06
-1.77155e-07
-1.03304e-06
-2.03805e-07
-9.69751e-07
-2.27487e-07
-9.00762e-07
-2.47744e-07
-8.2711e-07
-2.64144e-07
-7.49936e-07
-2.76285e-07
-6.70475e-07
-2.83812e-07
-5.90033e-07
-2.86426e-07
-5.09972e-07
-2.83897e-07
-4.31681e-07
-2.76089e-07
-3.56551e-07
-2.62972e-07
-2.85936e-07
-2.44654e-07
-2.21115e-07
-2.21409e-07
-1.63246e-07
-1.93722e-07
-1.13319e-07
-1.62338e-07
-7.21039e-08
-1.28338e-07
-4.01039e-08
-9.32263e-08
-1.75259e-08
-5.90368e-08
-4.27339e-09
-2.84615e-08
-5.26902e-09
-1.4352e-06
-2.1117e-08
-1.4195e-06
-6.61288e-08
-1.39326e-06
-1.10396e-07
-1.35681e-06
-1.53299e-07
-1.31061e-06
-1.94212e-07
-1.25526e-06
-2.32507e-07
-1.1915e-06
-2.67563e-07
-1.12022e-06
-2.98769e-07
-1.04243e-06
-3.25535e-07
-9.59269e-07
-3.47303e-07
-8.71996e-07
-3.63558e-07
-7.81964e-07
-3.73845e-07
-6.90608e-07
-3.77781e-07
-5.99425e-07
-3.7508e-07
-5.09947e-07
-3.65567e-07
-4.23707e-07
-3.49212e-07
-3.42208e-07
-3.26153e-07
-2.66882e-07
-2.96735e-07
-1.99049e-07
-2.61555e-07
-1.39875e-07
-2.21512e-07
-9.03301e-08
-1.77883e-07
-5.11603e-08
-1.32396e-07
-2.28759e-08
-8.73212e-08
-5.76979e-09
-4.55676e-08
-1.10388e-08
-1.6136e-06
-2.65301e-08
-1.5964e-06
-8.33353e-08
-1.56758e-06
-1.39212e-07
-1.52749e-06
-1.93388e-07
-1.47662e-06
-2.45083e-07
-1.41561e-06
-2.93515e-07
-1.34526e-06
-3.37911e-07
-1.26652e-06
-3.7751e-07
-1.18048e-06
-4.11578e-07
-1.08836e-06
-4.39423e-07
-9.91514e-07
-4.60405e-07
-8.914e-07
-4.73958e-07
-7.89572e-07
-4.7961e-07
-6.87648e-07
-4.77003e-07
-5.87293e-07
-4.65923e-07
-4.90181e-07
-4.46324e-07
-3.97964e-07
-4.18369e-07
-3.12237e-07
-3.82462e-07
-2.34495e-07
-3.39297e-07
-1.66099e-07
-2.89908e-07
-1.08246e-07
-2.35735e-07
-6.19495e-08
-1.78693e-07
-2.80375e-08
-1.21233e-07
-7.18505e-09
-6.64201e-08
-1.82239e-08
-1.78671e-06
-3.22525e-08
-1.76817e-06
-1.01873e-07
-1.73701e-06
-1.70375e-07
-1.69357e-06
-2.36826e-07
-1.63837e-06
-3.00283e-07
-1.57208e-06
-3.59801e-07
-1.49555e-06
-4.14443e-07
-1.40977e-06
-4.6329e-07
-1.31589e-06
-5.05455e-07
-1.21522e-06
-5.40097e-07
-1.10918e-06
-5.66444e-07
-9.99333e-07
-5.83807e-07
-8.87331e-07
-5.91611e-07
-7.74915e-07
-5.89419e-07
-6.63877e-07
-5.76961e-07
-5.56032e-07
-5.54169e-07
-4.5319e-07
-5.21211e-07
-3.57116e-07
-4.78537e-07
-2.69496e-07
-4.26917e-07
-1.91908e-07
-3.67497e-07
-1.25792e-07
-3.01851e-07
-7.24424e-08
-2.32042e-07
-3.30079e-08
-1.60668e-07
-8.52631e-09
-9.09017e-08
-2.67502e-08
-1.9558e-06
-3.81777e-08
-1.9361e-06
-1.21579e-07
-1.9028e-06
-2.03673e-07
-1.85627e-06
-2.83358e-07
-1.79703e-06
-3.59521e-07
-1.72578e-06
-4.31047e-07
-1.6434e-06
-4.96827e-07
-1.55091e-06
-5.55775e-07
-1.44953e-06
-6.06837e-07
-1.34061e-06
-6.49018e-07
-1.22566e-06
-6.81395e-07
-1.10632e-06
-7.03148e-07
-9.84344e-07
-7.13586e-07
-8.61588e-07
-7.12175e-07
-7.39974e-07
-6.98576e-07
-6.21463e-07
-6.7268e-07
-5.08028e-07
-6.34647e-07
-4.01617e-07
-5.84947e-07
-3.04125e-07
-5.2441e-07
-2.17357e-07
-4.54264e-07
-1.43016e-07
-3.76192e-07
-8.26811e-08
-2.92377e-07
-3.78193e-08
-2.05529e-07
-9.80902e-09
-1.18912e-07
-3.65592e-08
-2.12192e-06
-4.4191e-08
-2.1012e-06
-1.42293e-07
-2.06597e-06
-2.38905e-07
-2.01658e-06
-3.32749e-07
-1.95356e-06
-4.22537e-07
-1.87763e-06
-5.06976e-07
-1.78968e-06
-5.84781e-07
-1.69077e-06
-6.54684e-07
-1.58215e-06
-7.1546e-07
-1.46522e-06
-7.65943e-07
-1.34157e-06
-8.05049e-07
-1.21291e-06
-8.31811e-07
-1.08109e-06
-8.45404e-07
-9.48079e-07
-8.45184e-07
-8.15933e-07
-8.30722e-07
-6.86765e-07
-8.01848e-07
-5.6272e-07
-7.58691e-07
-4.45944e-07
-7.01724e-07
-3.38548e-07
-6.31805e-07
-2.42586e-07
-5.50226e-07
-1.60028e-07
-4.58751e-07
-9.27465e-08
-3.59658e-07
-4.25211e-08
-2.55755e-07
-1.10517e-08
-1.50381e-07
-4.76109e-08
-2.28581e-06
-5.01687e-08
-2.26425e-06
-1.63853e-07
-2.22728e-06
-2.75871e-07
-2.17526e-06
-3.84771e-07
-2.10872e-06
-4.89083e-07
-2.02836e-06
-5.87331e-07
-1.9351e-06
-6.78043e-07
-1.83002e-06
-7.59767e-07
-1.71439e-06
-8.31091e-07
-1.58966e-06
-8.90666e-07
-1.45748e-06
-9.37236e-07
-1.31962e-06
-9.69666e-07
-1.17804e-06
-9.86982e-07
-1.03482e-06
-9.88405e-07
-8.92145e-07
-9.73398e-07
-7.52286e-07
-9.41707e-07
-6.17574e-07
-8.93404e-07
-4.90361e-07
-8.28937e-07
-3.72993e-07
-7.49173e-07
-2.6778e-07
-6.55439e-07
-1.76971e-07
-5.4956e-07
-1.02739e-07
-4.33891e-07
-4.71697e-08
-3.11324e-07
-1.22734e-08
-1.85278e-07
-5.98843e-08
-2.44799e-06
-5.59768e-08
-2.42576e-06
-1.86086e-07
-2.38726e-06
-3.14367e-07
-2.33284e-06
-4.39192e-07
-2.26302e-06
-5.58908e-07
-2.1785e-06
-6.71851e-07
-2.08018e-06
-7.76357e-07
-1.96917e-06
-8.70777e-07
-1.84676e-06
-9.53505e-07
-1.71443e-06
-1.023e-06
-1.57387e-06
-1.0778e-06
-1.42693e-06
-1.1166e-06
-1.27566e-06
-1.13825e-06
-1.12224e-06
-1.14182e-06
-9.69008e-07
-1.12663e-06
-8.18396e-07
-1.09232e-06
-6.72924e-07
-1.03887e-06
-5.35167e-07
-9.66695e-07
-4.07714e-07
-8.76626e-07
-2.93147e-07
-7.70006e-07
-1.94005e-07
-6.48702e-07
-1.12765e-07
-5.15131e-07
-5.18235e-08
-3.72265e-07
-1.34928e-08
-2.23608e-07
-7.33771e-08
-2.60872e-06
-6.14706e-08
-2.586e-06
-2.08806e-07
-2.5462e-06
-3.54173e-07
-2.48962e-06
-4.95766e-07
-2.41679e-06
-6.31747e-07
-2.32838e-06
-7.60261e-07
-2.22529e-06
-8.79447e-07
-2.10861e-06
-9.87453e-07
-1.97965e-06
-1.08246e-06
-1.83992e-06
-1.16272e-06
-1.69115e-06
-1.22658e-06
-1.53524e-06
-1.2725e-06
-1.37434e-06
-1.29916e-06
-1.21074e-06
-1.30542e-06
-1.04691e-06
-1.29046e-06
-8.85463e-07
-1.25377e-06
-7.29113e-07
-1.19522e-06
-5.80668e-07
-1.11514e-06
-4.42978e-07
-1.01432e-06
-3.18906e-07
-8.94078e-07
-2.11294e-07
-7.56313e-07
-1.22935e-07
-6.03491e-07
-5.65401e-08
-4.3866e-07
-1.47276e-08
-2.65421e-07
-8.81048e-08
-2.76801e-06
-6.64953e-08
-2.745e-06
-2.31813e-07
-2.70412e-06
-3.95048e-07
-2.64567e-06
-5.54218e-07
-2.57012e-06
-7.07302e-07
-2.47812e-06
-8.52252e-07
-2.37057e-06
-9.87004e-07
-2.24852e-06
-1.1095e-06
-2.1133e-06
-1.21769e-06
-1.96641e-06
-1.30961e-06
-1.80961e-06
-1.38337e-06
-1.64489e-06
-1.43723e-06
-1.47444e-06
-1.46961e-06
-1.30068e-06
-1.47918e-06
-1.12622e-06
-1.46492e-06
-9.53839e-07
-1.42615e-06
-7.86474e-07
-1.36259e-06
-6.27169e-07
-1.27445e-06
-4.79047e-07
-1.16244e-06
-3.45271e-07
-1.02785e-06
-2.29e-07
-8.72584e-07
-1.33354e-07
-6.99137e-07
-6.13748e-08
-5.10639e-07
-1.59944e-08
-3.10801e-07
-1.04099e-07
-2.92557e-06
-7.08861e-08
-2.9025e-06
-2.54889e-07
-2.86082e-06
-4.36726e-07
-2.8008e-06
-6.14242e-07
-2.72286e-06
-7.85237e-07
-2.62765e-06
-9.47468e-07
-2.51599e-06
-1.09867e-06
-2.38893e-06
-1.23655e-06
-2.24777e-06
-1.35886e-06
-2.09402e-06
-1.46336e-06
-1.92945e-06
-1.54794e-06
-1.75609e-06
-1.61058e-06
-1.57622e-06
-1.64948e-06
-1.39235e-06
-1.66305e-06
-1.20724e-06
-1.65004e-06
-1.02384e-06
-1.60954e-06
-8.45317e-07
-1.54112e-06
-6.74957e-07
-1.4448e-06
-5.16176e-07
-1.32122e-06
-3.72451e-07
-1.17158e-06
-2.47279e-07
-9.97756e-07
-1.44126e-07
-8.0229e-07
-6.63804e-08
-5.88384e-07
-1.73088e-08
-3.59873e-07
-1.21408e-07
-3.08089e-06
-7.44704e-08
-3.05798e-06
-2.77795e-07
-3.0158e-06
-4.78907e-07
-2.95455e-06
-6.75487e-07
-2.87463e-06
-8.65159e-07
-2.77661e-06
-1.04549e-06
-2.66128e-06
-1.214e-06
-2.52964e-06
-1.36819e-06
-2.38295e-06
-1.50555e-06
-2.22271e-06
-1.6236e-06
-2.05069e-06
-1.71995e-06
-1.86896e-06
-1.79231e-06
-1.67985e-06
-1.83859e-06
-1.48597e-06
-1.85693e-06
-1.29023e-06
-1.84578e-06
-1.09575e-06
-1.80402e-06
-9.05921e-07
-1.73095e-06
-7.243e-07
-1.62642e-06
-5.54604e-07
-1.49092e-06
-4.00645e-07
-1.32554e-06
-2.6628e-07
-1.13212e-06
-1.55347e-07
-9.13223e-07
-7.16072e-08
-6.72124e-07
-1.86854e-08
-4.12795e-07
-1.40093e-07
-3.2331e-06
-7.70701e-08
-3.21062e-06
-3.00272e-07
-3.16827e-06
-5.21257e-07
-3.10621e-06
-7.37554e-07
-3.02475e-06
-9.46615e-07
-2.92442e-06
-1.14582e-06
-2.80593e-06
-1.33249e-06
-2.67023e-06
-1.50389e-06
-2.51852e-06
-1.65726e-06
-2.35226e-06
-1.78986e-06
-2.17323e-06
-1.89899e-06
-1.98347e-06
-1.98207e-06
-1.78539e-06
-2.03667e-06
-1.58168e-06
-2.06063e-06
-1.37537e-06
-2.05209e-06
-1.16979e-06
-2.0096e-06
-9.68527e-07
-1.93221e-06
-7.75437e-07
-1.81952e-06
-5.9455e-07
-1.6718e-06
-4.30039e-07
-1.49005e-06
-2.86146e-07
-1.27601e-06
-1.67112e-07
-1.03226e-06
-7.71033e-08
-7.62132e-07
-2.01385e-08
-4.69759e-07
-1.60232e-07
-3.38106e-06
-7.85049e-08
-3.35929e-06
-3.2204e-07
-3.31714e-06
-5.63405e-07
-3.25471e-06
-7.99985e-07
-3.17225e-06
-1.02908e-06
-3.07019e-06
-1.24788e-06
-2.94917e-06
-1.45351e-06
-2.81004e-06
-1.64301e-06
-2.65394e-06
-1.81336e-06
-2.48227e-06
-1.96153e-06
-2.29676e-06
-2.08451e-06
-2.09945e-06
-2.17937e-06
-1.89277e-06
-2.24335e-06
-1.6795e-06
-2.27391e-06
-1.46278e-06
-2.26882e-06
-1.24611e-06
-2.22627e-06
-1.03333e-06
-2.14498e-06
-8.28575e-07
-2.02427e-06
-6.36214e-07
-1.86416e-06
-4.60806e-07
-1.66546e-06
-3.07011e-07
-1.42981e-06
-1.7951e-07
-1.15976e-06
-8.29152e-08
-8.58727e-07
-2.16816e-08
-5.30993e-07
-1.81913e-07
-3.52325e-06
-7.85972e-08
-3.50249e-06
-3.42802e-07
-3.46096e-06
-6.04935e-07
-3.39868e-06
-8.62261e-07
-3.31583e-06
-1.11193e-06
-3.21273e-06
-1.35098e-06
-3.08991e-06
-1.57633e-06
-2.94813e-06
-1.78479e-06
-2.78841e-06
-1.97308e-06
-2.61207e-06
-2.13786e-06
-2.42078e-06
-2.27581e-06
-2.21654e-06
-2.38361e-06
-2.00178e-06
-2.45811e-06
-1.77933e-06
-2.49636e-06
-1.55245e-06
-2.4957e-06
-1.32481e-06
-2.45391e-06
-1.10048e-06
-2.36931e-06
-8.83888e-07
-2.24086e-06
-6.79775e-07
-2.06827e-06
-4.93108e-07
-1.85212e-06
-3.29004e-07
-1.59391e-06
-1.92628e-07
-1.29613e-06
-8.90887e-08
-9.62267e-07
-2.33284e-08
-5.96753e-07
-2.05242e-07
-3.65781e-06
-7.71779e-08
-3.63837e-06
-3.62242e-07
-3.59791e-06
-6.45394e-07
-3.53638e-06
-9.23797e-07
-3.45383e-06
-1.19448e-06
-3.35049e-06
-1.45433e-06
-3.22675e-06
-1.70007e-06
-3.08324e-06
-1.9283e-06
-2.92084e-06
-2.13547e-06
-2.74076e-06
-2.31794e-06
-2.54456e-06
-2.47201e-06
-2.33418e-06
-2.59399e-06
-2.11202e-06
-2.68027e-06
-1.88095e-06
-2.72743e-06
-1.64429e-06
-2.73235e-06
-1.40589e-06
-2.69231e-06
-1.17005e-06
-2.60515e-06
-9.41513e-07
-2.4694e-06
-7.25387e-07
-2.2844e-06
-5.27093e-07
-2.05042e-06
-3.52248e-07
-1.76876e-06
-2.06553e-07
-1.44183e-06
-9.56696e-08
-1.07315e-06
-2.50927e-08
-6.6733e-07
-2.30334e-07
-3.78246e-06
-7.40931e-08
-3.76467e-06
-3.80033e-07
-3.72578e-06
-6.84284e-07
-3.66564e-06
-9.83936e-07
-3.5842e-06
-1.27592e-06
-3.48154e-06
-1.55699e-06
-3.35791e-06
-1.82371e-06
-3.21376e-06
-2.07245e-06
-3.04982e-06
-2.29941e-06
-2.86713e-06
-2.50063e-06
-2.66711e-06
-2.67203e-06
-2.4516e-06
-2.8095e-06
-2.22293e-06
-2.90894e-06
-1.98396e-06
-2.96641e-06
-1.73809e-06
-2.97822e-06
-1.48928e-06
-2.94111e-06
-1.24209e-06
-2.85235e-06
-1.00155e-06
-2.70994e-06
-7.73185e-07
-2.51276e-06
-5.62903e-07
-2.2607e-06
-3.76865e-07
-1.9548e-06
-2.2137e-07
-1.59732e-06
-1.02705e-07
-1.19182e-06
-2.69887e-08
-7.43046e-07
-2.57323e-07
-3.8945e-06
-6.92126e-08
-3.87869e-06
-3.95839e-07
-3.84191e-06
-7.2107e-07
-3.78389e-06
-1.04195e-06
-3.70447e-06
-1.35534e-06
-3.60356e-06
-1.6579e-06
-3.48122e-06
-1.94604e-06
-3.33772e-06
-2.21595e-06
-3.17358e-06
-2.46355e-06
-2.98965e-06
-2.68457e-06
-2.78714e-06
-2.87454e-06
-2.56776e-06
-3.02888e-06
-2.33371e-06
-3.14298e-06
-2.0878e-06
-3.21231e-06
-1.83347e-06
-3.23256e-06
-1.5748e-06
-3.19979e-06
-1.31653e-06
-3.11062e-06
-1.06404e-06
-2.96243e-06
-8.23279e-07
-2.75352e-06
-6.00666e-07
-2.48331e-06
-4.02974e-07
-2.15249e-06
-2.3717e-07
-1.76313e-06
-1.10244e-07
-1.31874e-06
-2.9032e-08
-8.24259e-07
-2.86355e-07
-3.99076e-06
-6.24396e-08
-3.97727e-06
-4.09327e-07
-3.94316e-06
-7.55181e-07
-3.88807e-06
-1.09704e-06
-3.81168e-06
-1.43174e-06
-3.71371e-06
-1.75586e-06
-3.59404e-06
-2.06571e-06
-3.4527e-06
-2.35729e-06
-3.28995e-06
-2.6263e-06
-3.1064e-06
-2.86813e-06
-2.90302e-06
-3.07792e-06
-2.68131e-06
-3.2506e-06
-2.4433e-06
-3.38099e-06
-2.1917e-06
-3.46391e-06
-1.92992e-06
-3.49434e-06
-1.66212e-06
-3.46758e-06
-1.39325e-06
-3.37949e-06
-1.129e-06
-3.22668e-06
-8.75756e-07
-3.00677e-06
-6.40508e-07
-2.71856e-06
-4.30698e-07
-2.3623e-06
-2.54045e-07
-1.93978e-06
-1.18342e-07
-1.45444e-06
-3.12394e-08
-9.11361e-07
-3.17594e-07
-4.06759e-06
-5.3721e-08
-4.05675e-06
-4.2017e-07
-4.02591e-06
-7.86017e-07
-3.97461e-06
-1.14834e-06
-3.90236e-06
-1.50399e-06
-3.8087e-06
-1.84952e-06
-3.69326e-06
-2.18115e-06
-3.5558e-06
-2.49475e-06
-3.3963e-06
-2.7858e-06
-3.21505e-06
-3.04938e-06
-3.01274e-06
-3.28022e-06
-2.79057e-06
-3.47276e-06
-2.55036e-06
-3.6212e-06
-2.29464e-06
-3.71964e-06
-2.02673e-06
-3.76225e-06
-1.75083e-06
-3.74348e-06
-1.47204e-06
-3.65828e-06
-1.19638e-06
-3.50235e-06
-9.30679e-07
-3.27246e-06
-6.82548e-07
-2.96669e-06
-4.60167e-07
-2.58468e-06
-2.721e-07
-2.12785e-06
-1.27057e-07
-1.59949e-06
-3.36303e-08
-1.00479e-06
-3.51225e-07
-4.1208e-06
-4.30589e-08
-4.11291e-06
-4.28059e-07
-4.08597e-06
-8.12956e-07
-4.03939e-06
-1.19492e-06
-3.97251e-06
-1.57086e-06
-3.88467e-06
-1.93736e-06
-3.77522e-06
-2.2906e-06
-3.64361e-06
-2.62636e-06
-3.48949e-06
-2.93991e-06
-3.3128e-06
-3.22607e-06
-3.11384e-06
-3.47918e-06
-2.89348e-06
-3.69312e-06
-2.65322e-06
-3.86147e-06
-2.39531e-06
-3.97754e-06
-2.12295e-06
-4.03461e-06
-1.8403e-06
-4.02614e-06
-1.55257e-06
-3.94601e-06
-1.26606e-06
-3.78886e-06
-9.88083e-07
-3.55043e-06
-7.26903e-07
-3.22787e-06
-4.91518e-07
-2.82006e-06
-2.91451e-07
-2.32791e-06
-1.3646e-07
-1.75448e-06
-3.62273e-08
-1.10502e-06
-3.87452e-07
-4.14566e-06
-3.05225e-08
-4.141e-06
-4.32715e-07
-4.11858e-06
-8.3537e-07
-4.0777e-06
-1.2358e-06
-4.01753e-06
-1.63104e-06
-3.93715e-06
-2.01774e-06
-3.83564e-06
-2.39212e-06
-3.71212e-06
-2.74989e-06
-3.56583e-06
-3.0862e-06
-3.39628e-06
-3.39562e-06
-3.20338e-06
-3.67209e-06
-2.98751e-06
-3.90899e-06
-2.74977e-06
-4.0992e-06
-2.4921e-06
-4.23521e-06
-2.2174e-06
-4.30931e-06
-1.92974e-06
-4.3138e-06
-1.63437e-06
-4.24137e-06
-1.33785e-06
-4.08538e-06
-1.04798e-06
-3.84031e-06
-7.73691e-07
-3.50216e-06
-5.24907e-07
-3.06885e-06
-3.12232e-07
-2.54059e-06
-1.46633e-07
-1.92008e-06
-3.90573e-08
-1.2126e-06
-4.26509e-07
-4.13686e-06
-1.62591e-08
-4.13567e-06
-4.33904e-07
-4.11841e-06
-8.52632e-07
-4.08425e-06
-1.26996e-06
-4.03219e-06
-1.6831e-06
-3.96107e-06
-2.08886e-06
-3.86965e-06
-2.48353e-06
-3.75668e-06
-2.86286e-06
-3.62097e-06
-3.22191e-06
-3.46156e-06
-3.55503e-06
-3.27781e-06
-3.85584e-06
-3.06959e-06
-4.11721e-06
-2.83749e-06
-4.33131e-06
-2.58296e-06
-4.48974e-06
-2.30856e-06
-4.58371e-06
-2.01811e-06
-4.60426e-06
-1.71684e-06
-4.54264e-06
-1.4115e-06
-4.39072e-06
-1.11033e-06
-4.14147e-06
-8.23034e-07
-3.78946e-06
-5.6051e-07
-3.33137e-06
-3.34602e-07
-2.7665e-06
-1.57673e-07
-2.09701e-06
-4.21534e-08
-1.32812e-06
-4.68663e-07
-4.08853e-06
-5.05066e-10
-4.09099e-06
-4.31447e-07
-4.07948e-06
-8.64137e-07
-4.05308e-06
-1.29636e-06
-4.01061e-06
-1.72558e-06
-3.95065e-06
-2.14881e-06
-3.87165e-06
-2.56253e-06
-3.77195e-06
-2.96256e-06
-3.6499e-06
-3.34396e-06
-3.50397e-06
-3.70095e-06
-3.33295e-06
-4.02687e-06
-3.13606e-06
-4.31409e-06
-2.91325e-06
-4.55412e-06
-2.66539e-06
-4.73761e-06
-2.39451e-06
-4.85459e-06
-2.10407e-06
-4.89469e-06
-1.79915e-06
-4.84756e-06
-1.48659e-06
-4.70328e-06
-1.17508e-06
-4.45299e-06
-8.75057e-07
-4.08948e-06
-5.98535e-07
-3.60789e-06
-3.58755e-07
-3.00628e-06
-1.69705e-07
-2.28606e-06
-4.5557e-08
-1.45226e-06
-5.1422e-07
-3.99419e-06
1.64067e-08
-4.0004e-06
-4.25237e-07
-3.99521e-06
-8.69323e-07
-3.9776e-06
-1.31397e-06
-3.94622e-06
-1.75696e-06
-3.89943e-06
-2.19561e-06
-3.83533e-06
-2.62664e-06
-3.75184e-06
-3.04604e-06
-3.64681e-06
-3.44899e-06
-3.51812e-06
-3.82964e-06
-3.36386e-06
-4.18113e-06
-3.18254e-06
-4.49542e-06
-2.97332e-06
-4.76334e-06
-2.73631e-06
-4.97461e-06
-2.47288e-06
-5.11802e-06
-2.18594e-06
-5.18164e-06
-1.88024e-06
-5.15326e-06
-1.56261e-06
-5.0209e-06
-1.24209e-06
-4.77351e-06
-9.29894e-07
-4.40168e-06
-6.3923e-07
-3.89856e-06
-3.84931e-07
-3.26058e-06
-1.82882e-07
-2.48811e-06
-4.93205e-08
-1.58583e-06
-5.6354e-07
-3.84676e-06
3.40418e-08
-3.85675e-06
-4.1525e-07
-3.85838e-06
-8.67688e-07
-3.85056e-06
-1.32179e-06
-3.83179e-06
-1.77573e-06
-3.80021e-06
-2.2272e-06
-3.75359e-06
-2.67326e-06
-3.68944e-06
-3.11019e-06
-3.60508e-06
-3.53335e-06
-3.49773e-06
-3.93698e-06
-3.36476e-06
-4.3141e-06
-3.20381e-06
-4.65637e-06
-3.01314e-06
-4.954e-06
-2.79195e-06
-5.19581e-06
-2.54069e-06
-5.36927e-06
-2.26153e-06
-5.4608e-06
-1.9587e-06
-5.45609e-06
-1.63882e-06
-5.34078e-06
-1.31116e-06
-5.10117e-06
-9.87681e-07
-4.72516e-06
-6.82893e-07
-4.20335e-06
-4.1343e-07
-3.53004e-06
-1.974e-07
-2.70414e-06
-5.35121e-08
-1.72971e-06
-6.17053e-07
-3.63865e-06
5.18654e-08
-3.65234e-06
-4.01559e-07
-3.6612e-06
-8.58822e-07
-3.6641e-06
-1.3189e-06
-3.6594e-06
-1.78042e-06
-3.64506e-06
-2.24154e-06
-3.61855e-06
-2.69976e-06
-3.57699e-06
-3.15176e-06
-3.51714e-06
-3.5932e-06
-3.43558e-06
-4.01854e-06
-3.32885e-06
-4.42083e-06
-3.19367e-06
-4.79155e-06
-3.02725e-06
-5.12042e-06
-2.82765e-06
-5.39541e-06
-2.59421e-06
-5.60271e-06
-2.32809e-06
-5.72692e-06
-2.03269e-06
-5.75149e-06
-1.71421e-06
-5.65927e-06
-1.38195e-06
-5.43343e-06
-1.04855e-06
-5.05855e-06
-7.29885e-07
-4.52201e-06
-4.44633e-07
-3.81529e-06
-2.13517e-07
-2.93525e-06
-5.8221e-08
-1.88501e-06
-6.75274e-07
-3.36171e-06
6.92502e-08
-3.37893e-06
-3.84341e-07
-3.39533e-06
-8.42425e-07
-3.40974e-06
-1.30448e-06
-3.42048e-06
-1.76968e-06
-3.42534e-06
-2.23669e-06
-3.42154e-06
-2.70356e-06
-3.40583e-06
-3.16747e-06
-3.37448e-06
-3.62455e-06
-3.32339e-06
-4.06963e-06
-3.24826e-06
-4.49596e-06
-3.14481e-06
-4.895e-06
-3.00904e-06
-5.25619e-06
-2.8377e-06
-5.56675e-06
-2.62877e-06
-5.81164e-06
-2.38204e-06
-5.97365e-06
-2.09978e-06
-6.03375e-06
-1.78739e-06
-5.97167e-06
-1.45394e-06
-5.76687e-06
-1.11261e-06
-5.39989e-06
-7.80644e-07
-4.85398e-06
-4.79026e-07
-4.11691e-06
-2.31566e-07
-3.18271e-06
-6.35662e-08
-2.05301e-06
-7.3884e-07
-3.0074e-06
8.54925e-08
-3.02785e-06
-3.63884e-07
-3.05194e-06
-8.18339e-07
-3.07852e-06
-1.2779e-06
-3.10588e-06
-1.74231e-06
-3.13172e-06
-2.21086e-06
-3.15308e-06
-2.68219e-06
-3.16641e-06
-3.15414e-06
-3.16753e-06
-3.62343e-06
-3.15173e-06
-4.08543e-06
-3.11386e-06
-4.53383e-06
-3.04856e-06
-4.9603e-06
-2.95057e-06
-5.35419e-06
-2.8151e-06
-5.70221e-06
-2.63848e-06
-5.98826e-06
-2.41879e-06
-6.19334e-06
-2.15672e-06
-6.29583e-06
-1.85642e-06
-6.27197e-06
-1.52635e-06
-6.09694e-06
-1.1799e-06
-5.74633e-06
-8.35691e-07
-5.19819e-06
-5.17232e-07
-4.43537e-06
-2.51991e-07
-3.44795e-06
-6.97083e-08
-2.23529e-06
-8.08548e-07
-2.5668e-06
9.98402e-08
-2.5901e-06
-3.40581e-07
-2.62187e-06
-7.86572e-07
-2.66104e-06
-1.23873e-06
-2.70595e-06
-1.69741e-06
-2.75427e-06
-2.16254e-06
-2.80297e-06
-2.63349e-06
-2.84828e-06
-3.10882e-06
-2.88569e-06
-3.58602e-06
-2.90994e-06
-4.06119e-06
-2.9151e-06
-4.52867e-06
-2.89475e-06
-4.98064e-06
-2.84227e-06
-5.40668e-06
-2.75119e-06
-5.79329e-06
-2.61589e-06
-6.12356e-06
-2.43234e-06
-6.37689e-06
-2.19912e-06
-6.52904e-06
-1.91856e-06
-6.55253e-06
-1.5979e-06
-6.4176e-06
-1.25033e-06
-6.0939e-06
-8.95627e-07
-5.55289e-06
-5.60052e-07
-4.77094e-06
-2.75387e-07
-3.73262e-06
-7.68685e-08
-2.43381e-06
-8.85417e-07
-2.03082e-06
1.11531e-07
-2.05648e-06
-3.14923e-07
-2.09573e-06
-7.47316e-07
-2.14765e-06
-1.18681e-06
-2.21068e-06
-1.63438e-06
-2.28258e-06
-2.09064e-06
-2.36035e-06
-2.55573e-06
-2.44015e-06
-3.02902e-06
-2.51727e-06
-3.5089e-06
-2.58605e-06
-3.99241e-06
-2.63991e-06
-4.47481e-06
-2.67144e-06
-4.9491e-06
-2.67265e-06
-5.40547e-06
-2.6353e-06
-5.83064e-06
-2.55155e-06
-6.2073e-06
-2.41484e-06
-6.5136e-06
-2.22104e-06
-6.72285e-06
-1.96988e-06
-6.80368e-06
-1.66662e-06
-6.72087e-06
-1.32352e-06
-6.43699e-06
-9.61113e-07
-5.9153e-06
-6.08513e-07
-5.12355e-06
-3.02558e-07
-4.03857e-06
-8.53558e-08
-2.65101e-06
-9.70772e-07
-1.39033e-06
1.19845e-07
-1.41777e-06
-2.87483e-07
-1.46412e-06
-7.0097e-07
-1.52861e-06
-1.12232e-06
-1.60989e-06
-1.55309e-06
-1.70592e-06
-1.99462e-06
-1.81386e-06
-2.44778e-06
-1.93e-06
-2.91288e-06
-2.04959e-06
-3.38931e-06
-2.16678e-06
-3.87521e-06
-2.27456e-06
-4.36703e-06
-2.36471e-06
-4.85896e-06
-2.42795e-06
-5.34222e-06
-2.45427e-06
-5.80432e-06
-2.43345e-06
-6.22813e-06
-2.35595e-06
-6.5911e-06
-2.21429e-06
-6.86452e-06
-2.00471e-06
-7.01326e-06
-1.72936e-06
-6.99622e-06
-1.39855e-06
-6.7678e-06
-1.03279e-06
-6.28106e-06
-6.63915e-07
-5.49242e-06
-3.34605e-07
-4.36788e-06
-9.56123e-08
-2.89001e-06
-1.06638e-06
-6.36397e-07
1.24166e-07
-6.64996e-07
-2.58885e-07
-7.17819e-07
-6.48148e-07
-7.94334e-07
-1.0458e-06
-8.93459e-07
-1.45397e-06
-1.01347e-06
-1.87461e-06
-1.15186e-06
-2.30939e-06
-1.30521e-06
-2.75953e-06
-1.46903e-06
-3.22549e-06
-1.63755e-06
-3.70669e-06
-1.80359e-06
-4.20099e-06
-1.95842e-06
-4.70413e-06
-2.09177e-06
-5.20888e-06
-2.19194e-06
-5.70415e-06
-2.24629e-06
-6.17378e-06
-2.24202e-06
-6.59536e-06
-2.16761e-06
-6.93893e-06
-2.01476e-06
-7.16612e-06
-1.78113e-06
-7.22985e-06
-1.47352e-06
-7.07541e-06
-1.11111e-06
-6.64347e-06
-7.27877e-07
-5.87566e-06
-3.73051e-07
-4.72271e-06
-1.08285e-07
-3.15477e-06
-1.17467e-06
2.39465e-07
1.24053e-07
2.10349e-07
-2.29769e-07
1.51879e-07
-5.89678e-07
6.43209e-08
-9.58245e-07
-5.15999e-08
-1.33805e-06
-1.94589e-07
-1.73162e-06
-3.62644e-07
-2.14134e-06
-5.52878e-07
-2.56929e-06
-7.61305e-07
-3.01706e-06
-9.82593e-07
-3.4854e-06
-1.2098e-06
-3.97379e-06
-1.43412e-06
-4.47981e-06
-1.64467e-06
-4.99832e-06
-1.82848e-06
-5.52034e-06
-1.97064e-06
-6.03162e-06
-2.05499e-06
-6.51101e-06
-2.06538e-06
-6.92853e-06
-1.98788e-06
-7.24362e-06
-1.81395e-06
-7.40377e-06
-1.54474e-06
-7.34462e-06
-1.19595e-06
-6.99226e-06
-8.02331e-07
-6.26928e-06
-4.20015e-07
-5.10502e-06
-1.24349e-07
-3.45044e-06
-1.29902e-06
1.24497e-06
1.19318e-07
1.21595e-06
-2.00751e-07
1.15288e-06
-5.26604e-07
1.05572e-06
-8.61081e-07
9.24769e-07
-1.2071e-06
7.60789e-07
-1.56764e-06
5.65121e-07
-1.94567e-06
3.39895e-07
-2.34407e-06
8.82773e-08
-2.76545e-06
-1.85223e-07
-3.2119e-06
-4.74391e-07
-3.68462e-06
-7.70909e-07
-4.18329e-06
-1.06395e-06
-4.70529e-06
-1.33984e-06
-5.24445e-06
-1.58196e-06
-5.7895e-06
-1.771e-06
-6.32197e-06
-1.88596e-06
-6.81357e-06
-1.90622e-06
-7.22335e-06
-1.81513e-06
-7.49486e-06
-1.60535e-06
-7.5544e-06
-1.28584e-06
-7.31178e-06
-8.89374e-07
-6.66574e-06
-4.78455e-07
-5.51594e-06
-1.45319e-07
-3.78357e-06
-1.44434e-06
2.38673e-06
1.10091e-07
2.35835e-06
-1.7238e-07
2.29191e-06
-4.60164e-07
2.18706e-06
-7.56228e-07
2.04364e-06
-1.06368e-06
1.86177e-06
-1.38577e-06
1.64201e-06
-1.72591e-06
1.38552e-06
-2.08758e-06
1.09434e-06
-2.47427e-06
7.71765e-07
-2.88932e-06
4.2272e-07
-3.33557e-06
5.43422e-08
-3.81491e-06
-3.23427e-07
-4.32752e-06
-6.97194e-07
-4.87068e-06
-1.04955e-06
-5.43714e-06
-1.35882e-06
-6.0127e-06
-1.59944e-06
-6.57296e-06
-1.74353e-06
-7.07926e-06
-1.76444e-06
-7.47395e-06
-1.6429e-06
-7.67594e-06
-1.37634e-06
-7.57834e-06
-9.9076e-07
-7.05132e-06
-5.52452e-07
-5.95425e-06
-1.73617e-07
-4.16241e-06
-1.61795e-06
3.66982e-06
9.68807e-08
3.64254e-06
-1.45097e-07
3.57415e-06
-3.91774e-07
3.464e-06
-6.46085e-07
3.31147e-06
-9.11148e-07
3.11601e-06
-1.19031e-06
2.87728e-06
-1.48718e-06
2.59534e-06
-1.80563e-06
2.27085e-06
-2.14979e-06
1.90548e-06
-2.52396e-06
1.50234e-06
-2.93244e-06
1.06662e-06
-3.37919e-06
6.06341e-07
-3.86724e-06
1.33369e-07
-4.39771e-06
-3.35588e-07
-4.96819e-06
-7.77978e-07
-5.57031e-06
-1.16487e-06
-6.18607e-06
-1.46148e-06
-6.78265e-06
-1.62988e-06
-7.30556e-06
-1.63519e-06
-7.67063e-06
-1.45701e-06
-7.75652e-06
-1.10649e-06
-7.40184e-06
-6.47399e-07
-6.41334e-06
-2.13205e-07
-4.5966e-06
-1.83116e-06
5.09743e-06
8.05971e-08
5.07155e-06
-1.19215e-07
5.00278e-06
-3.23005e-07
4.89021e-06
-5.33514e-07
4.73275e-06
-7.53692e-07
4.52921e-06
-9.86767e-07
4.27833e-06
-1.23631e-06
3.97898e-06
-1.50628e-06
3.63032e-06
-1.80112e-06
3.2321e-06
-2.12573e-06
2.78512e-06
-2.48546e-06
2.29189e-06
-2.88596e-06
1.75746e-06
-3.33281e-06
1.19063e-06
-3.83087e-06
6.05443e-07
-4.383e-06
2.29537e-08
-4.98782e-06
-5.2701e-07
-5.63611e-06
-1.00471e-06
-6.30495e-06
-1.36124e-06
-6.94902e-06
-1.54333e-06
-7.48854e-06
-1.50526e-06
-7.79459e-06
-1.23131e-06
-7.6758e-06
-7.696e-07
-6.87504e-06
-2.70606e-07
-5.0956e-06
-2.10176e-06
6.67037e-06
6.25325e-08
6.64608e-06
-9.49207e-08
6.57864e-06
-2.55568e-07
6.46694e-06
-4.2181e-07
6.30951e-06
-5.9626e-07
6.10456e-06
-7.81819e-07
5.85002e-06
-9.81767e-07
5.5436e-06
-1.19986e-06
5.18292e-06
-1.44044e-06
4.76574e-06
-1.70855e-06
4.29028e-06
-2.01e-06
3.75578e-06
-2.35146e-06
3.16336e-06
-2.74039e-06
2.51723e-06
-3.18474e-06
1.82646e-06
-3.69223e-06
1.10744e-06
-4.2688e-06
3.86888e-07
-4.91556e-06
-2.94786e-07
-5.62327e-06
-8.81072e-07
-6.36274e-06
-1.3003e-06
-7.06931e-06
-1.47493e-06
-7.61996e-06
-1.34646e-06
-7.80427e-06
-9.23728e-07
-7.29778e-06
-3.56272e-07
-5.66306e-06
-2.45804e-06
8.38673e-06
4.428e-08
8.36413e-06
-7.23185e-08
8.29988e-06
-1.91316e-07
8.19272e-06
-3.1466e-07
8.04095e-06
-4.44484e-07
7.84232e-06
-5.83194e-07
7.59411e-06
-7.33558e-07
7.29307e-06
-8.98821e-07
6.93548e-06
-1.08285e-06
6.51721e-06
-1.29028e-06
6.03395e-06
-1.52674e-06
5.48153e-06
-1.79904e-06
4.85653e-06
-2.11539e-06
4.15737e-06
-2.48558e-06
3.38597e-06
-2.92083e-06
2.55048e-06
-3.43331e-06
1.66922e-06
-4.03429e-06
7.76123e-07
-4.73018e-06
-7.26541e-08
-5.51396e-06
-7.93228e-07
-6.34874e-06
-1.27513e-06
-7.13806e-06
-1.40098e-06
-7.67841e-06
-1.10342e-06
-7.59534e-06
-4.84948e-07
-6.28153e-06
-2.94298e-06
1.02415e-05
2.75764e-08
1.02207e-05
-5.15255e-08
1.01616e-05
-1.32274e-07
1.00631e-05
-2.16095e-07
9.92313e-06
-3.04561e-07
9.7394e-06
-3.99466e-07
9.50875e-06
-5.02904e-07
9.22731e-06
-6.17384e-07
8.89042e-06
-7.45959e-07
8.49255e-06
-8.92409e-07
8.02729e-06
-1.06148e-06
7.48742e-06
-1.25917e-06
6.86518e-06
-1.49315e-06
6.15282e-06
-1.77322e-06
5.34381e-06
-2.11183e-06
4.43505e-06
-2.52456e-06
3.43084e-06
-3.03007e-06
2.34938e-06
-3.64872e-06
1.23299e-06
-4.39757e-06
1.61736e-07
-5.27749e-06
-7.33364e-07
-6.24296e-06
-1.27073e-06
-7.14104e-06
-1.26163e-06
-7.60445e-06
-6.6822e-07
-6.87494e-06
-3.6112e-06
1.22261e-05
1.40575e-08
1.22074e-05
-3.28299e-08
1.21559e-05
-8.07052e-08
1.20702e-05
-1.30467e-07
1.19488e-05
-1.83115e-07
1.17891e-05
-2.39798e-07
1.15881e-05
-3.01875e-07
1.13417e-05