/*--------------------------------*- C++ -*----------------------------------*\
| =========                 |                                                 |
| \\      /  F ield         | OpenFOAM: The Open Source CFD Toolbox           |
|  \\    /   O peration     | Version:  v2012                                 |
|   \\  /    A nd           | Website:  www.openfoam.com                      |
|    \\/     M anipulation  |                                                 |
\*---------------------------------------------------------------------------*/
FoamFile
{
    version     2.0;
    format      ascii;
    class       volVectorField;
    location    "0.35";
    object      U;
}
// * * * * * * * * * * * * * * * * * * * * * * * * * * * * * * * * * * * * * //

dimensions      [0 1 -1 0 0 0 0];


internalField   nonuniform List<vector> 
1250
(
(-0.0070569 -8.10084e-06 0)
(-0.00699859 -2.69459e-05 0)
(-0.00687909 -4.55351e-05 0)
(-0.00669975 -6.36048e-05 0)
(-0.00646278 -8.08833e-05 0)
(-0.00617131 -9.70912e-05 0)
(-0.00582938 -0.000111944 0)
(-0.00544193 -0.000125152 0)
(-0.00501484 -0.000136429 0)
(-0.00455486 -0.000145488 0)
(-0.00406963 -0.000152049 0)
(-0.00356761 -0.000155845 0)
(-0.00305802 -0.00015662 0)
(-0.00255078 -0.000154139 0)
(-0.0020564 -0.00014819 0)
(-0.00158586 -0.000138587 0)
(-0.00115041 -0.000125184 0)
(-0.000761421 -0.000107887 0)
(-0.000430018 -8.66939e-05 0)
(-0.000166605 -6.17857e-05 0)
(1.99577e-05 -3.3752e-05 0)
(0.000123732 -4.07502e-06 0)
(0.000144904 2.37915e-05 0)
(9.98211e-05 4.17753e-05 0)
(3.2126e-05 3.20584e-05 0)
(-0.0199064 -5.41928e-05 0)
(-0.0197456 -0.000174825 0)
(-0.0194183 -0.000293619 0)
(-0.0189285 -0.000408869 0)
(-0.0182823 -0.000518829 0)
(-0.0174885 -0.000621726 0)
(-0.0165582 -0.000715768 0)
(-0.015505 -0.000799166 0)
(-0.014345 -0.000870152 0)
(-0.0130964 -0.000927006 0)
(-0.0117799 -0.00096808 0)
(-0.0104182 -0.000991835 0)
(-0.00903587 -0.000996876 0)
(-0.0076591 -0.000981995 0)
(-0.00631538 -0.000946222 0)
(-0.00503302 -0.000888894 0)
(-0.00384059 -0.000809755 0)
(-0.00276616 -0.000709116 0)
(-0.00183624 -0.000588129 0)
(-0.00107423 -0.000449298 0)
(-0.000498226 -0.000297465 0)
(-0.000117601 -0.000141649 0)
(7.24762e-05 1.65057e-06 0)
(0.000102954 0.000101861 0)
(4.21592e-05 9.98323e-05 0)
(-0.031726 -0.000153783 0)
(-0.0314748 -0.000489313 0)
(-0.0309656 -0.000819486 0)
(-0.0302048 -0.00113954 0)
(-0.029202 -0.00144464 0)
(-0.0279708 -0.00172987 0)
(-0.0265287 -0.00199031 0)
(-0.0248965 -0.00222109 0)
(-0.0230991 -0.0024174 0)
(-0.0211645 -0.00257462 0)
(-0.0191243 -0.00268838 0)
(-0.0170131 -0.00275466 0)
(-0.0148682 -0.00276992 0)
(-0.0127291 -0.00273121 0)
(-0.0106369 -0.00263636 0)
(-0.00863362 -0.0024842 0)
(-0.00676115 -0.00227488 0)
(-0.0050601 -0.00201033 0)
(-0.00356805 -0.00169497 0)
(-0.00231738 -0.00133694 0)
(-0.00133233 -0.000950144 0)
(-0.00062482 -0.000557616 0)
(-0.000188771 -0.000196615 0)
(7.10037e-06 7.28218e-05 0)
(2.53628e-05 0.000146506 0)
(-0.0427038 -0.000296232 0)
(-0.0423726 -0.000934941 0)
(-0.0417033 -0.0015632 0)
(-0.0407039 -0.00217197 0)
(-0.0393873 -0.00275207 0)
(-0.0377714 -0.00329423 0)
(-0.0358786 -0.00378921 0)
(-0.0337365 -0.00422785 0)
(-0.0313769 -0.00460122 0)
(-0.0288363 -0.00490075 0)
(-0.0261555 -0.00511843 0)
(-0.0233789 -0.00524696 0)
(-0.0205543 -0.00528004 0)
(-0.0177319 -0.00521261 0)
(-0.0149641 -0.00504118 0)
(-0.0123038 -0.00476431 0)
(-0.00980348 -0.00438318 0)
(-0.00751357 -0.00390241 0)
(-0.0054804 -0.00333131 0)
(-0.00374372 -0.00268571 0)
(-0.00233359 -0.0019909 0)
(-0.00126619 -0.00128603 0)
(-0.000538783 -0.000630016 0)
(-0.000129787 -0.000110765 0)
(-5.91332e-07 0.000130283 0)
(-0.0529935 -0.000475115 0)
(-0.0525917 -0.00149167 0)
(-0.0517803 -0.00249138 0)
(-0.0505692 -0.0034599 0)
(-0.0489739 -0.00438274 0)
(-0.0470156 -0.00524531 0)
(-0.0447215 -0.00603304 0)
(-0.0421241 -0.00673161 0)
(-0.0392617 -0.00732708 0)
(-0.0361776 -0.00780617 0)
(-0.0329202 -0.0081565 0)
(-0.0295421 -0.00836697 0)
(-0.0260998 -0.00842808 0)
(-0.0226527 -0.00833242 0)
(-0.019262 -0.00807521 0)
(-0.0159898 -0.00765497 0)
(-0.0128975 -0.00707441 0)
(-0.0100437 -0.0063416 0)
(-0.00748251 -0.00547165 0)
(-0.00526069 -0.00448905 0)
(-0.00341507 -0.00343104 0)
(-0.00196836 -0.00235252 0)
(-0.000925126 -0.00133197 0)
(-0.000280035 -0.000480184 0)
(-2.81838e-05 3.54827e-05 0)
(-0.0627275 -0.00068617 0)
(-0.0622634 -0.00214813 0)
(-0.0613253 -0.00358574 0)
(-0.0599247 -0.00497854 0)
(-0.058079 -0.00630586 0)
(-0.0558126 -0.00754692 0)
(-0.0531561 -0.0086811 0)
(-0.0501466 -0.00968807 0)
(-0.0468275 -0.0105482 0)
(-0.0432479 -0.0112428 0)
(-0.0394625 -0.0117545 0)
(-0.0355308 -0.012068 0)
(-0.0315166 -0.0121702 0)
(-0.0274869 -0.0120512 0)
(-0.0235108 -0.0117048 0)
(-0.0196582 -0.0111296 0)
(-0.0159981 -0.01033 0)
(-0.0125969 -0.00931806 0)
(-0.0095162 -0.00811489 0)
(-0.00681026 -0.00675371 0)
(-0.00452393 -0.00528331 0)
(-0.00268868 -0.00377285 0)
(-0.00131936 -0.0023173 0)
(-0.000430576 -0.00104492 0)
(-5.4604e-05 -0.000139217 0)
(-0.0720189 -0.000924878 0)
(-0.0714999 -0.00289375 0)
(-0.0704483 -0.00482989 0)
(-0.0688764 -0.00670602 0)
(-0.0668035 -0.00849459 0)
(-0.0642563 -0.010168 0)
(-0.0612684 -0.0116987 0)
(-0.0578806 -0.0130599 0)
(-0.0541403 -0.0142255 0)
(-0.0501017 -0.0151709 0)
(-0.0458246 -0.0158733 0)
(-0.0413746 -0.0163126 0)
(-0.0368216 -0.0164718 0)
(-0.0322393 -0.0163381 0)
(-0.0277036 -0.0159038 0)
(-0.0232917 -0.0151676 0)
(-0.0190799 -0.0141356 0)
(-0.015142 -0.0128234 0)
(-0.0115475 -0.0112582 0)
(-0.00835891 -0.00948146 0)
(-0.00563051 -0.0075523 0)
(-0.00340429 -0.00555217 0)
(-0.00170738 -0.00358932 0)
(-0.000575859 -0.00180471 0)
(-7.90078e-05 -0.000390884 0)
(-0.0809629 -0.00118651 0)
(-0.080396 -0.00371876 0)
(-0.0792422 -0.0062093 0)
(-0.0775144 -0.00862341 0)
(-0.0752334 -0.0109261 0)
(-0.0724274 -0.0130822 0)
(-0.0691326 -0.015057 0)
(-0.0653927 -0.0168164 0)
(-0.0612587 -0.0183274 0)
(-0.0567886 -0.0195588 0)
(-0.0520469 -0.020482 0)
(-0.0471041 -0.0210714 0)
(-0.0420357 -0.021306 0)
(-0.0369214 -0.0211697 0)
(-0.0318436 -0.0206529 0)
(-0.0268862 -0.0197538 0)
(-0.0221326 -0.0184801 0)
(-0.0176647 -0.0168508 0)
(-0.01356 -0.0148982 0)
(-0.00989054 -0.0126711 0)
(-0.00672095 -0.0102377 0)
(-0.00410514 -0.00768958 0)
(-0.00208368 -0.00514532 0)
(-0.000714273 -0.00275489 0)
(-0.000101383 -0.000715432 0)
(-0.0896385 -0.00146617 0)
(-0.0890307 -0.0046144 0)
(-0.0877848 -0.00771153 0)
(-0.0859144 -0.010715 0)
(-0.083441 -0.0135818 0)
(-0.0803945 -0.0162689 0)
(-0.0768126 -0.0187336 0)
(-0.0727414 -0.0209341 0)
(-0.0682347 -0.02283 0)
(-0.0633539 -0.0243831 0)
(-0.0581674 -0.0255582 0)
(-0.0527502 -0.0263241 0)
(-0.0471828 -0.0266549 0)
(-0.0415503 -0.0265307 0)
(-0.0359414 -0.0259396 0)
(-0.0304466 -0.024879 0)
(-0.0251571 -0.0233574 0)
(-0.0201626 -0.0213963 0)
(-0.0155498 -0.0190326 0)
(-0.0114007 -0.0163211 0)
(-0.00779154 -0.0133375 0)
(-0.00478898 -0.0101816 0)
(-0.00244757 -0.00698016 0)
(-0.000846166 -0.00388944 0)
(-0.000122046 -0.00110883 0)
(-0.0981106 -0.00175872 0)
(-0.0974685 -0.00557247 0)
(-0.0961399 -0.00932559 0)
(-0.0941387 -0.0129672 0)
(-0.0914868 -0.0164461 0)
(-0.0882149 -0.0197108 0)
(-0.0843622 -0.0227103 0)
(-0.0799765 -0.0253945 0)
(-0.0751139 -0.0277151 0)
(-0.0698384 -0.0296264 0)
(-0.064222 -0.031086 0)
(-0.0583434 -0.0320565 0)
(-0.052288 -0.0325063 0)
(-0.0461462 -0.0324114 0)
(-0.0400126 -0.0317569 0)
(-0.0339849 -0.0305384 0)
(-0.0281617 -0.0287644 0)
(-0.0226415 -0.0264583 0)
(-0.0175207 -0.0236603 0)
(-0.0128923 -0.02043 0)
(-0.00884477 -0.0168492 0)
(-0.00545805 -0.0130244 0)
(-0.00280097 -0.00908849 0)
(-0.000972789 -0.00520267 0)
(-0.000141408 -0.00156768 0)
(-0.10643 -0.00205865 0)
(-0.10576 -0.00658499 0)
(-0.104358 -0.0110413 0)
(-0.102237 -0.0153682 0)
(-0.0994194 -0.0195056 0)
(-0.0959357 -0.0233935 0)
(-0.0918265 -0.0269721 0)
(-0.0871405 -0.0301827 0)
(-0.0819356 -0.0329684 0)
(-0.0762783 -0.0352753 0)
(-0.0702433 -0.0370535 0)
(-0.063913 -0.0382584 0)
(-0.0573772 -0.0388524 0)
(-0.0507314 -0.0388063 0)
(-0.0440764 -0.0381012 0)
(-0.0375169 -0.0367302 0)
(-0.0311598 -0.034701 0)
(-0.0251126 -0.0320374 0)
(-0.0194822 -0.0287819 0)
(-0.0143731 -0.0249978 0)
(-0.00988683 -0.0207715 0)
(-0.00611714 -0.016215 0)
(-0.00314713 -0.0114661 0)
(-0.00109578 -0.00669021 0)
(-0.000159888 -0.00208948 0)
(-0.114635 -0.00236002 0)
(-0.113945 -0.00764393 0)
(-0.112479 -0.0128487 0)
(-0.110248 -0.0179063 0)
(-0.107276 -0.0227477 0)
(-0.103594 -0.0273038 0)
(-0.099241 -0.0315057 0)
(-0.0942676 -0.0352855 0)
(-0.0887328 -0.0385775 0)
(-0.0827047 -0.0413189 0)
(-0.0762605 -0.0434515 0)
(-0.0694861 -0.0449228 0)
(-0.0624752 -0.0456883 0)
(-0.0553286 -0.0457125 0)
(-0.0481532 -0.0449716 0)
(-0.0410611 -0.0434553 0)
(-0.0341676 -0.041169 0)
(-0.0275901 -0.038136 0)
(-0.0214463 -0.0343999 0)
(-0.0158533 -0.0300262 0)
(-0.010926 -0.025105 0)
(-0.00677235 -0.0197524 0)
(-0.00348991 -0.0141109 0)
(-0.00121689 -0.00834945 0)
(-0.000177879 -0.0026727 0)
(-0.12275 -0.00265639 0)
(-0.122048 -0.00874094 0)
(-0.120527 -0.0147379 0)
(-0.118198 -0.0205704 0)
(-0.115084 -0.0261602 0)
(-0.111216 -0.031429 0)
(-0.106632 -0.0362984 0)
(-0.101384 -0.040691 0)
(-0.0955315 -0.0445315 0)
(-0.0891432 -0.0477477 0)
(-0.0822987 -0.0502722 0)
(-0.0750869 -0.052044 0)
(-0.0676053 -0.0530103 0)
(-0.0599599 -0.0531286 0)
(-0.0522639 -0.0523689 0)
(-0.0446367 -0.0507162 0)
(-0.0372028 -0.0481723 0)
(-0.0300897 -0.0447588 0)
(-0.0234271 -0.0405187 0)
(-0.0173446 -0.0355191 0)
(-0.0119715 -0.0298524 0)
(-0.00743036 -0.0236382 0)
(-0.00383338 -0.017023 0)
(-0.00133787 -0.0101798 0)
(-0.000195742 -0.00331675 0)
(-0.130789 -0.00294079 0)
(-0.130082 -0.00986714 0)
(-0.128516 -0.0166983 0)
(-0.126102 -0.0233484 0)
(-0.122859 -0.0297303 0)
(-0.118818 -0.0357558 0)
(-0.114018 -0.0413371 0)
(-0.108509 -0.0463866 0)
(-0.102351 -0.050819 0)
(-0.0956132 -0.0545519 0)
(-0.0883778 -0.057508 0)
(-0.0807356 -0.0596165 0)
(-0.0727879 -0.0608155 0)
(-0.0646456 -0.0610542 0)
(-0.0564281 -0.060295 0)
(-0.0482628 -0.0585167 0)
(-0.0402833 -0.0557162 0)
(-0.032628 -0.0519119 0)
(-0.0254388 -0.0471452 0)
(-0.0188592 -0.0414829 0)
(-0.0130328 -0.0350193 0)
(-0.00809797 -0.0278765 0)
(-0.00418158 -0.0202051 0)
(-0.00146039 -0.0121825 0)
(-0.000213803 -0.00402198 0)
(-0.13875 -0.00320574 0)
(-0.138049 -0.0110129 0)
(-0.136449 -0.0187185 0)
(-0.133961 -0.0262277 0)
(-0.130604 -0.033444 0)
(-0.126406 -0.04027 0)
(-0.121405 -0.0466074 0)
(-0.11565 -0.0523586 0)
(-0.109201 -0.0574273 0)
(-0.102127 -0.0617206 0)
(-0.0945121 -0.06515 0)
(-0.086448 -0.0676341 0)
(-0.0780399 -0.0691006 0)
(-0.0694033 -0.0694886 0)
(-0.060664 -0.068752 0)
(-0.0519573 -0.0668613 0)
(-0.0434263 -0.0638073 0)
(-0.035221 -0.0596034 0)
(-0.0274959 -0.0542879 0)
(-0.020409 -0.0479264 0)
(-0.0141196 -0.0406136 0)
(-0.00878187 -0.0324742 0)
(-0.00453844 -0.0236625 0)
(-0.00158605 -0.0143611 0)
(-0.000232359 -0.00478957 0)
(-0.146621 -0.00344322 0)
(-0.145935 -0.0121678 0)
(-0.144314 -0.0207858 0)
(-0.141767 -0.0291937 0)
(-0.138311 -0.0372858 0)
(-0.133973 -0.0449549 0)
(-0.12879 -0.0520928 0)
(-0.122807 -0.0585908 0)
(-0.116084 -0.0643417 0)
(-0.108691 -0.0692407 0)
(-0.100709 -0.0731876 0)
(-0.0922343 -0.0760889 0)
(-0.0833737 -0.0778605 0)
(-0.0742472 -0.0784303 0)
(-0.064987 -0.0777413 0)
(-0.0557361 -0.0757547 0)
(-0.0466478 -0.0724529 0)
(-0.0378837 -0.0678425 0)
(-0.029612 -0.0619575 0)
(-0.0220058 -0.0548607 0)
(-0.015241 -0.0466465 0)
(-0.00948853 -0.0374412 0)
(-0.00490771 -0.0274031 0)
(-0.00171635 -0.0167207 0)
(-0.000251683 -0.00562152 0)
(-0.154375 -0.00364479 0)
(-0.153713 -0.0133205 0)
(-0.152084 -0.0228862 0)
(-0.149494 -0.0322301 0)
(-0.145959 -0.0412375 0)
(-0.141502 -0.0497915 0)
(-0.136157 -0.0577736 0)
(-0.129969 -0.0650641 0)
(-0.122993 -0.0715438 0)
(-0.1153 -0.0770958 0)
(-0.106969 -0.0816067 0)
(-0.0980984 -0.0849699 0)
(-0.0887964 -0.0870879 0)
(-0.0791873 -0.0878756 0)
(-0.0694091 -0.0872634 0)
(-0.0596128 -0.0852008 0)
(-0.0499618 -0.0816601 0)
(-0.04063 -0.0766395 0)
(-0.0317999 -0.0701661 0)
(-0.0236606 -0.0622991 0)
(-0.0164056 -0.0531311 0)
(-0.0102241 -0.0427897 0)
(-0.005293 -0.0314372 0)
(-0.00185271 -0.0192684 0)
(-0.000272032 -0.00652059 0)
(-0.161967 -0.00380164 0)
(-0.161341 -0.0144584 0)
(-0.15972 -0.0250039 0)
(-0.157106 -0.0353182 0)
(-0.153513 -0.045278 0)
(-0.14896 -0.0547571 0)
(-0.14348 -0.0636262 0)
(-0.137111 -0.0717547 0)
(-0.12991 -0.079011 0)
(-0.12194 -0.0852648 0)
(-0.113284 -0.0903889 0)
(-0.104037 -0.0942621 0)
(-0.094309 -0.0967718 0)
(-0.0842285 -0.0978179 0)
(-0.0739384 -0.0973162 0)
(-0.0635978 -0.0952023 0)
(-0.0533801 -0.0914361 0)
(-0.0434721 -0.0860048 0)
(-0.0340713 -0.0789273 0)
(-0.0253838 -0.0702568 0)
(-0.017622 -0.0600832 0)
(-0.0109945 -0.0485347 0)
(-0.00569773 -0.0357773 0)
(-0.00199649 -0.0220131 0)
(-0.00029365 -0.00749025 0)
(-0.169341 -0.00390475 0)
(-0.168763 -0.0155682 0)
(-0.167165 -0.0271213 0)
(-0.164548 -0.0384367 0)
(-0.160921 -0.0493831 0)
(-0.156302 -0.0598247 0)
(-0.150715 -0.0696225 0)
(-0.144199 -0.078634 0)
(-0.136803 -0.086715 0)
(-0.128589 -0.0937212 0)
(-0.119636 -0.0995105 0)
(-0.110038 -0.103945 0)
(-0.0999056 -0.106896 0)
(-0.0893698 -0.108247 0)
(-0.0785784 -0.107894 0)
(-0.0676979 -0.10576 0)
(-0.056912 -0.101786 0)
(-0.0464205 -0.0959487 0)
(-0.0364366 -0.088255 0)
(-0.0271848 -0.0787504 0)
(-0.0188977 -0.0675206 0)
(-0.0118054 -0.0546934 0)
(-0.00612523 -0.0404383 0)
(-0.00214903 -0.0249652 0)
(-0.000316775 -0.00853466 0)
(-0.176422 -0.00394513 0)
(-0.175902 -0.0166353 0)
(-0.174345 -0.0292187 0)
(-0.171749 -0.0415613 0)
(-0.168117 -0.0535242 0)
(-0.163463 -0.064963 0)
(-0.157807 -0.0757286 0)
(-0.151181 -0.085667 0)
(-0.143629 -0.0946211 0)
(-0.135209 -0.102432 0)
(-0.125996 -0.108941 0)
(-0.11608 -0.113993 0)
(-0.105572 -0.11744 0)
(-0.0946038 -0.119145 0)
(-0.0833274 -0.118988 0)
(-0.071916 -0.116869 0)
(-0.0605636 -0.112714 0)
(-0.0494833 -0.106481 0)
(-0.0389049 -0.0981635 0)
(-0.0290724 -0.0877978 0)
(-0.0202404 -0.075463 0)
(-0.0126622 -0.0612852 0)
(-0.00657874 -0.0454371 0)
(-0.00231163 -0.0281368 0)
(-0.000341646 -0.00965867 0)
(-0.183114 -0.00391403 0)
(-0.182666 -0.0176444 0)
(-0.18117 -0.0312744 0)
(-0.17862 -0.0446644 0)
(-0.175016 -0.0576686 0)
(-0.170365 -0.0701349 0)
(-0.164681 -0.0819044 0)
(-0.157991 -0.0928118 0)
(-0.15033 -0.102687 0)
(-0.141751 -0.111355 0)
(-0.132322 -0.11864 0)
(-0.122131 -0.124369 0)
(-0.111285 -0.128372 0)
(-0.0999153 -0.130491 0)
(-0.0881772 -0.130583 0)
(-0.0762502 -0.128524 0)
(-0.0643377 -0.124219 0)
(-0.0526666 -0.117608 0)
(-0.0414839 -0.108667 0)
(-0.0310545 -0.0974174 0)
(-0.0216569 -0.0839314 0)
(-0.0135702 -0.0683313 0)
(-0.00706152 -0.0507926 0)
(-0.00248562 -0.0315416 0)
(-0.000368508 -0.0108678 0)
(-0.189305 -0.00380327 0)
(-0.18894 -0.0185793 0)
(-0.187525 -0.0332646 0)
(-0.185051 -0.0477149 0)
(-0.181511 -0.0617789 0)
(-0.176907 -0.0752974 0)
(-0.171245 -0.0881025 0)
(-0.164543 -0.100018 0)
(-0.15683 -0.110861 0)
(-0.148149 -0.12044 0)
(-0.138561 -0.128561 0)
(-0.128147 -0.13503 0)
(-0.11701 -0.139656 0)
(-0.10528 -0.142253 0)
(-0.0931132 -0.142654 0)
(-0.0806933 -0.140709 0)
(-0.0682334 -0.136298 0)
(-0.0559738 -0.129335 0)
(-0.0441797 -0.119776 0)
(-0.0331383 -0.107628 0)
(-0.0231541 -0.0929479 0)
(-0.0145347 -0.0758551 0)
(-0.00757687 -0.0565259 0)
(-0.00267239 -0.0351949 0)
(-0.000397623 -0.0121683 0)
(-0.194859 -0.00360564 0)
(-0.19459 -0.0194235 0)
(-0.193278 -0.0351634 0)
(-0.190911 -0.0506783 0)
(-0.187476 -0.0658125 0)
(-0.182968 -0.0804009 0)
(-0.177385 -0.0942678 0)
(-0.170734 -0.107227 0)
(-0.163035 -0.119081 0)
(-0.15432 -0.129624 0)
(-0.144641 -0.138643 0)
(-0.13407 -0.14592 0)
(-0.122703 -0.151239 0)
(-0.110665 -0.154389 0)
(-0.0981123 -0.15517 0)
(-0.0852321 -0.153404 0)
(-0.0722453 -0.14894 0)
(-0.0594057 -0.141662 0)
(-0.046997 -0.131503 0)
(-0.0353302 -0.118446 0)
(-0.0247385 -0.102536 0)
(-0.0155613 -0.0838813 0)
(-0.00812828 -0.0626597 0)
(-0.00287341 -0.0391137 0)
(-0.000429276 -0.0135671 0)
(-0.199619 -0.00331536 0)
(-0.199456 -0.0201601 0)
(-0.19827 -0.0369433 0)
(-0.196044 -0.0535164 0)
(-0.192761 -0.0697214 0)
(-0.188404 -0.0853888 0)
(-0.182964 -0.100336 0)
(-0.176437 -0.114368 0)
(-0.16883 -0.127274 0)
(-0.160162 -0.138833 0)
(-0.150474 -0.148812 0)
(-0.139825 -0.156969 0)
(-0.128302 -0.16306 0)
(-0.116024 -0.166844 0)
(-0.103143 -0.168088 0)
(-0.0898464 -0.166577 0)
(-0.0763634 -0.162125 0)
(-0.0629597 -0.154584 0)
(-0.0499385 -0.143853 0)
(-0.0376361 -0.129889 0)
(-0.0264168 -0.112718 0)
(-0.0166555 -0.0924361 0)
(-0.00871949 -0.069219 0)
(-0.00309031 -0.0433168 0)
(-0.000463788 -0.015072 0)
(-0.203403 -0.00292853 0)
(-0.203355 -0.0207725 0)
(-0.202318 -0.0385747 0)
(-0.200271 -0.0561875 0)
(-0.197188 -0.0734523 0)
(-0.193046 -0.0901972 0)
(-0.187822 -0.106235 0)
(-0.181501 -0.121361 0)
(-0.174076 -0.135355 0)
(-0.165551 -0.14798 0)
(-0.15595 -0.15898 0)
(-0.14532 -0.168092 0)
(-0.133733 -0.17504 0)
(-0.121299 -0.179549 0)
(-0.108161 -0.181348 0)
(-0.0945079 -0.180184 0)
(-0.0805715 -0.175827 0)
(-0.0666299 -0.168088 0)
(-0.0530054 -0.156828 0)
(-0.0400611 -0.141971 0)
(-0.0281957 -0.123517 0)
(-0.0178235 -0.101547 0)
(-0.00935465 -0.0762308 0)
(-0.00332494 -0.0478247 0)
(-0.000501529 -0.0166916 0)
(-0.206002 -0.00244374 0)
(-0.206076 -0.0212446 0)
(-0.205213 -0.040027 0)
(-0.203382 -0.0586466 0)
(-0.200554 -0.0769465 0)
(-0.196694 -0.0947544 0)
(-0.191769 -0.11188 0)
(-0.185749 -0.128114 0)
(-0.178608 -0.143224 0)
(-0.170337 -0.156958 0)
(-0.160938 -0.169043 0)
(-0.150441 -0.179186 0)
(-0.138902 -0.187081 0)
(-0.126414 -0.192417 0)
(-0.113112 -0.194879 0)
(-0.0991786 -0.194167 0)
(-0.0848472 -0.190004 0)
(-0.0704062 -0.182151 0)
(-0.0561965 -0.170423 0)
(-0.0426099 -0.154703 0)
(-0.0300822 -0.134957 0)
(-0.019072 -0.111244 0)
(-0.0100385 -0.0837242 0)
(-0.00357945 -0.0526603 0)
(-0.00054294 -0.0184357 0)
(-0.207181 -0.00186262 0)
(-0.207384 -0.0215616 0)
(-0.206715 -0.0412689 0)
(-0.205142 -0.0608458 0)
(-0.202626 -0.0801399 0)
(-0.199124 -0.0989815 0)
(-0.194588 -0.11718 0)
(-0.188973 -0.134522 0)
(-0.182235 -0.150767 0)
(-0.174343 -0.165649 0)
(-0.16528 -0.178875 0)
(-0.155052 -0.190128 0)
(-0.143693 -0.199067 0)
(-0.131278 -0.205339 0)
(-0.117926 -0.208585 0)
(-0.103809 -0.20845 0)
(-0.0891598 -0.2046 0)
(-0.0742732 -0.19674 0)
(-0.0595085 -0.184626 0)
(-0.0452866 -0.16809 0)
(-0.032084 -0.147057 0)
(-0.020409 -0.121555 0)
(-0.0107768 -0.0917309 0)
(-0.00385641 -0.057849 0)
(-0.000588553 -0.0203151 0)
(-0.206676 -0.00119044 0)
(-0.207009 -0.0217106 0)
(-0.206557 -0.0422687 0)
(-0.205283 -0.0627348 0)
(-0.20314 -0.0829641 0)
(-0.200076 -0.102792 0)
(-0.196028 -0.122031 0)
(-0.190933 -0.140467 0)
(-0.18473 -0.157853 0)
(-0.177362 -0.173913 0)
(-0.168788 -0.188334 0)
(-0.158987 -0.200772 0)
(-0.147966 -0.210855 0)
(-0.135776 -0.218184 0)
(-0.122513 -0.222348 0)
(-0.108336 -0.222934 0)
(-0.0934686 -0.219541 0)
(-0.0782099 -0.211804 0)
(-0.0629351 -0.199412 0)
(-0.0480948 -0.182133 0)
(-0.0342096 -0.159836 0)
(-0.0218435 -0.132512 0)
(-0.011576 -0.100285 0)
(-0.00415896 -0.0634191 0)
(-0.000639031 -0.0223423 0)
(-0.204195 -0.000436681 0)
(-0.204657 -0.0216809 0)
(-0.204441 -0.0429954 0)
(-0.203506 -0.064262 0)
(-0.2018 -0.0853465 0)
(-0.199258 -0.106094 0)
(-0.195804 -0.126322 0)
(-0.191357 -0.145819 0)
(-0.185833 -0.164337 0)
(-0.179151 -0.18159 0)
(-0.17124 -0.197251 0)
(-0.162048 -0.210949 0)
(-0.151551 -0.222277 0)
(-0.139767 -0.230792 0)
(-0.126765 -0.236025 0)
(-0.112679 -0.237495 0)
(-0.097721 -0.234728 0)
(-0.0821874 -0.227275 0)
(-0.0664661 -0.214743 0)
(-0.0510374 -0.196821 0)
(-0.0364687 -0.17331 0)
(-0.0233865 -0.144147 0)
(-0.0124447 -0.109425 0)
(-0.00449103 -0.0694025 0)
(-0.000695207 -0.0245316 0)
(-0.199417 0.000384524 0)
(-0.200001 -0.0214653 0)
(-0.200037 -0.0434195 0)
(-0.199482 -0.0653751 0)
(-0.198276 -0.0872122 0)
(-0.196344 -0.108788 0)
(-0.193596 -0.129931 0)
(-0.189933 -0.150437 0)
(-0.185247 -0.170058 0)
(-0.179429 -0.188505 0)
(-0.172377 -0.205436 0)
(-0.164002 -0.220461 0)
(-0.154244 -0.233135 0)
(-0.14308 -0.24297 0)
(-0.130543 -0.249436 0)
(-0.116736 -0.251978 0)
(-0.101849 -0.250033 0)
(-0.0861669 -0.24306 0)
(-0.0700868 -0.230564 0)
(-0.0541164 -0.212136 0)
(-0.0388725 -0.18749 0)
(-0.0250515 -0.156492 0)
(-0.0133931 -0.119192 0)
(-0.0048576 -0.0758357 0)
(-0.000758157 -0.0268994 0)
(-0.19199 0.00125403 0)
(-0.192686 -0.0210603 0)
(-0.192988 -0.0435143 0)
(-0.192849 -0.0660231 0)
(-0.192205 -0.0884848 0)
(-0.190972 -0.110773 0)
(-0.189046 -0.132732 0)
(-0.186309 -0.154168 0)
(-0.18263 -0.17484 0)
(-0.177872 -0.194459 0)
(-0.171895 -0.212676 0)
(-0.164573 -0.229081 0)
(-0.155799 -0.243199 0)
(-0.145506 -0.254492 0)
(-0.133679 -0.262368 0)
(-0.12038 -0.26619 0)
(-0.105763 -0.265298 0)
(-0.0900965 -0.259038 0)
(-0.0737756 -0.246796 0)
(-0.0573321 -0.228042 0)
(-0.0414341 -0.202378 0)
(-0.0268552 -0.169579 0)
(-0.0144344 -0.129632 0)
(-0.00526512 -0.0827609 0)
(-0.000829285 -0.0294653 0)
(-0.181535 0.00214757 0)
(-0.182329 -0.020467 0)
(-0.182904 -0.0432564 0)
(-0.183215 -0.0661574 0)
(-0.183193 -0.0890892 0)
(-0.182746 -0.111947 0)
(-0.181758 -0.134593 0)
(-0.180094 -0.156852 0)
(-0.1776 -0.178495 0)
(-0.174108 -0.199239 0)
(-0.169443 -0.218734 0)
(-0.163434 -0.236555 0)
(-0.155924 -0.252201 0)
(-0.14679 -0.26509 0)
(-0.135962 -0.274562 0)
(-0.123446 -0.279894 0)
(-0.10935 -0.280317 0)
(-0.0939067 -0.275048 0)
(-0.0775015 -0.263331 0)
(-0.0606825 -0.244485 0)
(-0.0441687 -0.21797 0)
(-0.0288183 -0.183441 0)
(-0.0155858 -0.140798 0)
(-0.00572201 -0.0902275 0)
(-0.000910456 -0.0322528 0)
(-0.167651 0.00303596 0)
(-0.168521 -0.0196915 0)
(-0.169372 -0.0426279 0)
(-0.17016 -0.065734 0)
(-0.170813 -0.088954 0)
(-0.171234 -0.112208 0)
(-0.171298 -0.135383 0)
(-0.170853 -0.158324 0)
(-0.169725 -0.180825 0)
(-0.167717 -0.202614 0)
(-0.164615 -0.223349 0)
(-0.160203 -0.242599 0)
(-0.154268 -0.259841 0)
(-0.146624 -0.274452 0)
(-0.137133 -0.285711 0)
(-0.12573 -0.292802 0)
(-0.112459 -0.294838 0)
(-0.0975035 -0.290887 0)
(-0.0812194 -0.280023 0)
(-0.0641609 -0.261384 0)
(-0.0470935 -0.234247 0)
(-0.0309672 -0.198107 0)
(-0.0168692 -0.152748 0)
(-0.00623948 -0.0982943 0)
(-0.0010042 -0.0352903 0)
(-0.14991 0.00388568 0)
(-0.150831 -0.0187455 0)
(-0.151955 -0.0416169 0)
(-0.153239 -0.0647161 0)
(-0.154613 -0.0880148 0)
(-0.155975 -0.111462 0)
(-0.157195 -0.134973 0)
(-0.15811 -0.158422 0)
(-0.158527 -0.18163 0)
(-0.158221 -0.204347 0)
(-0.156945 -0.226245 0)
(-0.154432 -0.2469 0)
(-0.150413 -0.265777 0)
(-0.14463 -0.282222 0)
(-0.136865 -0.295454 0)
(-0.126966 -0.304566 0)
(-0.114894 -0.308543 0)
(-0.100758 -0.306288 0)
(-0.0848638 -0.296676 0)
(-0.0677524 -0.278621 0)
(-0.0502275 -0.25117 0)
(-0.0333345 -0.213607 0)
(-0.0183137 -0.165549 0)
(-0.00683263 -0.107033 0)
(-0.00111398 -0.0386131 0)
(-0.127869 0.00465995 0)
(-0.128813 -0.0176459 0)
(-0.130199 -0.0402194 0)
(-0.131989 -0.063076 0)
(-0.134116 -0.0862176 0)
(-0.136479 -0.109624 0)
(-0.138947 -0.133246 0)
(-0.141348 -0.156991 0)
(-0.143477 -0.180712 0)
(-0.145087 -0.204194 0)
(-0.145899 -0.227135 0)
(-0.145601 -0.249127 0)
(-0.143863 -0.269639 0)
(-0.14035 -0.287997 0)
(-0.134752 -0.303371 0)
(-0.126817 -0.31477 0)
(-0.116395 -0.321044 0)
(-0.103493 -0.320917 0)
(-0.0883373 -0.313031 0)
(-0.0714281 -0.29603 0)
(-0.0535894 -0.268672 0)
(-0.0359613 -0.229958 0)
(-0.0199578 -0.179278 0)
(-0.00752211 -0.116529 0)
(-0.0012447 -0.042266 0)
(-0.101075 0.00532038 0)
(-0.10201 -0.0164151 0)
(-0.10364 -0.0384401 0)
(-0.105935 -0.0607987 0)
(-0.108832 -0.0835238 0)
(-0.112237 -0.10663 0)
(-0.116021 -0.130102 0)
(-0.120013 -0.15389 0)
(-0.124 -0.177888 0)
(-0.127723 -0.201921 0)
(-0.130876 -0.225728 0)
(-0.133106 -0.248933 0)
(-0.134026 -0.271024 0)
(-0.133224 -0.291328 0)
(-0.130287 -0.308982 0)
(-0.124845 -0.322919 0)
(-0.116613 -0.331863 0)
(-0.105461 -0.334344 0)
(-0.0914948 -0.328743 0)
(-0.0751345 -0.31338 0)
(-0.0571941 -0.286645 0)
(-0.0388978 -0.247171 0)
(-0.0218525 -0.194024 0)
(-0.00833661 -0.126894 0)
(-0.00140339 -0.0463068 0)
(-0.0690716 0.00582921 0)
(-0.069965 -0.0150799 0)
(-0.0718154 -0.0362935 0)
(-0.0745992 -0.0578837 0)
(-0.0782644 -0.0799143 0)
(-0.0827269 -0.102434 0)
(-0.0878662 -0.125469 0)
(-0.0935201 -0.149009 0)
(-0.0994783 -0.172999 0)
(-0.105477 -0.197315 0)
(-0.111196 -0.221747 0)
(-0.116252 -0.245971 0)
(-0.120207 -0.269516 0)
(-0.122573 -0.291729 0)
(-0.122835 -0.311743 0)
(-0.120485 -0.328438 0)
(-0.11508 -0.340422 0)
(-0.106313 -0.34603 0)
(-0.094117 -0.343357 0)
(-0.0787762 -0.330342 0)
(-0.0610448 -0.304918 0)
(-0.0422039 -0.265227 0)
(-0.024066 -0.209885 0)
(-0.00931674 -0.138262 0)
(-0.00160046 -0.0508113 0)
(-0.0314116 0.00615221 0)
(-0.0322324 -0.0136706 0)
(-0.0342713 -0.0338049 0)
(-0.0375144 -0.0543487 0)
(-0.0419225 -0.0753948 0)
(-0.0474265 -0.0970261 0)
(-0.0539225 -0.119307 0)
(-0.0612646 -0.142276 0)
(-0.0692568 -0.165927 0)
(-0.0776448 -0.1902 0)
(-0.0861068 -0.214948 0)
(-0.0942458 -0.239916 0)
(-0.101586 -0.264697 0)
(-0.107576 -0.288692 0)
(-0.111598 -0.31106 0)
(-0.113003 -0.330664 0)
(-0.111164 -0.346026 0)
(-0.105554 -0.355298 0)
(-0.0958708 -0.356276 0)
(-0.0821859 -0.346462 0)
(-0.0651171 -0.323226 0)
(-0.0459471 -0.284068 0)
(-0.0266898 -0.22697 0)
(-0.0105211 -0.150811 0)
(-0.00185183 -0.0558821 0)
(0.0123313 0.00626205 0)
(0.0116101 -0.0122193 0)
(0.00941979 -0.0310104 0)
(0.00576325 -0.0502313 0)
(0.000664124 -0.0700007 0)
(-0.00582855 -0.0904323 0)
(-0.0136343 -0.111628 0)
(-0.0226334 -0.133672 0)
(-0.0326567 -0.156615 0)
(-0.0434746 -0.180461 0)
(-0.0547834 -0.205141 0)
(-0.0661923 -0.230485 0)
(-0.0772111 -0.256177 0)
(-0.0872427 -0.281707 0)
(-0.095585 -0.306303 0)
(-0.10145 -0.328858 0)
(-0.10401 -0.347857 0)
(-0.102478 -0.361309 0)
(-0.0962472 -0.366716 0)
(-0.0850753 -0.361102 0)
(-0.0693294 -0.341164 0)
(-0.0501942 -0.303563 0)
(-0.0298451 -0.245388 0)
(-0.012036 -0.164766 0)
(-0.00218281 -0.0616613 0)
(0.0625464 0.00614204 0)
(0.0619447 -0.0107579 0)
(0.0596447 -0.0279569 0)
(0.0556373 -0.0455916 0)
(0.0499283 -0.0638015 0)
(0.0425426 -0.0827258 0)
(0.0335305 -0.1025 0)
(0.0229762 -0.12325 0)
(0.0110086 -0.145083 0)
(-0.00218442 -0.168068 0)
(-0.0163396 -0.192224 0)
(-0.0310986 -0.21748 0)
(-0.0459874 -0.243636 0)
(-0.0603969 -0.270305 0)
(-0.0735692 -0.296837 0)
(-0.0845989 -0.32222 0)
(-0.0924603 -0.344976 0)
(-0.0960789 -0.363038 0)
(-0.0944677 -0.37366 0)
(-0.086952 -0.373379 0)
(-0.0734862 -0.358109 0)
(-0.054989 -0.323445 0)
(-0.0336897 -0.26523 0)
(-0.0139913 -0.180419 0)
(-0.00263516 -0.0683514 0)
(0.119569 0.00578988 0)
(0.119097 -0.00931617 0)
(0.116732 -0.0247016 0)
(0.112453 -0.0405135 0)
(0.106246 -0.0569045 0)
(0.0981102 -0.0740327 0)
(0.0880594 -0.0920599 0)
(0.0761338 -0.111148 0)
(0.0624103 -0.131451 0)
(0.0470172 -0.153108 0)
(0.0301537 -0.17622 0)
(0.0121148 -0.200828 0)
(-0.0066806 -0.226868 0)
(-0.0256568 -0.25411 0)
(-0.0440493 -0.282081 0)
(-0.0608812 -0.309941 0)
(-0.0749606 -0.336347 0)
(-0.0849219 -0.359267 0)
(-0.089343 -0.37581 0)
(-0.0869836 -0.382069 0)
(-0.0771732 -0.373114 0)
(-0.0602996 -0.343224 0)
(-0.0384179 -0.286519 0)
(-0.0165853 -0.198142 0)
(-0.0032805 -0.0762506 0)
(0.183659 0.00522096 0)
(0.183315 -0.00791925 0)
(0.180931 -0.0213113 0)
(0.176476 -0.0351048 0)
(0.169916 -0.0494576 0)
(0.161222 -0.0645375 0)
(0.15037 -0.0805221 0)
(0.137349 -0.0975993 0)
(0.122174 -0.115963 0)
(0.1049 -0.135808 0)
(0.085638 -0.157316 0)
(0.0645872 -0.180637 0)
(0.0420677 -0.205852 0)
(0.0185641 -0.23292 0)
(-0.00522207 -0.261589 0)
(-0.0283196 -0.291277 0)
(-0.0494432 -0.320895 0)
(-0.0669826 -0.348605 0)
(-0.0790677 -0.371544 0)
(-0.0837771 -0.385511 0)
(-0.0795645 -0.384753 0)
(-0.0658997 -0.362016 0)
(-0.0442366 -0.309111 0)
(-0.0201214 -0.218398 0)
(-0.00424508 -0.0858142 0)
(0.254983 0.00447058 0)
(0.254751 -0.00658624 0)
(0.252395 -0.017861 0)
(0.247874 -0.0294976 0)
(0.241137 -0.04165 0)
(0.232127 -0.0544852 0)
(0.220782 -0.0681855 0)
(0.207039 -0.0829511 0)
(0.190846 -0.0990002 0)
(0.172171 -0.116569 0)
(0.151023 -0.135903 0)
(0.127474 -0.157251 0)
(0.1017 -0.180833 0)
(0.0740329 -0.206803 0)
(0.0450227 -0.235171 0)
(0.0155248 -0.265683 0)
(-0.013208 -0.297631 0)
(-0.0394418 -0.329571 0)
(-0.060931 -0.358929 0)
(-0.0750306 -0.381494 0)
(-0.0790763 -0.3909 0)
(-0.071113 -0.378274 0)
(-0.0512711 -0.332486 0)
(-0.0250516 -0.241711 0)
(-0.00575394 -0.097761 0)
(0.333588 0.00359426 0)
(0.33344 -0.00532947 0)
(0.331158 -0.0144329 0)
(0.326696 -0.0238464 0)
(0.319987 -0.0337108 0)
(0.310952 -0.0441818 0)
(0.299491 -0.0554336 0)
(0.285496 -0.0676633 0)
(0.268847 -0.081095 0)
(0.249426 -0.0959835 0)
(0.227126 -0.112616 0)
(0.201877 -0.13131 0)
(0.173675 -0.152403 0)
(0.142634 -0.176226 0)
(0.109063 -0.203054 0)
(0.0735641 -0.233005 0)
(0.0371757 -0.265863 0)
(0.0015388 -0.300785 0)
(-0.0309377 -0.335824 0)
(-0.0570046 -0.367221 0)
(-0.0727599 -0.388479 0)
(-0.0742786 -0.389362 0)
(-0.0592842 -0.355324 0)
(-0.0319917 -0.268524 0)
(-0.00819915 -0.113242 0)
(0.419383 0.0026655 0)
(0.419281 -0.00415562 0)
(0.417122 -0.0111163 0)
(0.412855 -0.0183265 0)
(0.406406 -0.0259063 0)
(0.397676 -0.0339901 0)
(0.386542 -0.0427316 0)
(0.372853 -0.0523092 0)
(0.356435 -0.0629327 0)
(0.33709 -0.0748503 0)
(0.314604 -0.0883568 0)
(0.288759 -0.103801 0)
(0.259356 -0.121589 0)
(0.226254 -0.142184 0)
(0.189435 -0.166082 0)
(0.149113 -0.193759 0)
(0.105892 -0.225539 0)
(0.0610067 -0.261344 0)
(0.0166337 -0.30021 0)
(-0.0237735 -0.339448 0)
(-0.055284 -0.37329 0)
(-0.071671 -0.390993 0)
(-0.0669126 -0.374741 0)
(-0.0415364 -0.298749 0)
(-0.0121936 -0.134045 0)
(0.512116 0.00177001 0)
(0.51202 -0.00306896 0)
(0.510036 -0.00800823 0)
(0.506115 -0.0131325 0)
(0.500179 -0.0185352 0)
(0.492121 -0.0243222 0)
(0.481804 -0.0306165 0)
(0.469053 -0.0375642 0)
(0.453656 -0.0453417 0)
(0.435359 -0.0541645 0)
(0.413863 -0.0642995 0)
(0.388825 -0.0760783 0)
(0.359867 -0.0899146 0)
(0.326589 -0.106321 0)
(0.288617 -0.125923 0)
(0.245674 -0.149458 0)
(0.19773 -0.177724 0)
(0.145251 -0.211439 0)
(0.0896114 -0.250871 0)
(0.0336951 -0.295039 0)
(-0.0173567 -0.340116 0)
(-0.0554206 -0.376583 0)
(-0.0697304 -0.384945 0)
(-0.0532977 -0.330658 0)
(-0.0183758 -0.162888 0)