/*--------------------------------*- C++ -*----------------------------------*\
| =========                 |                                                 |
| \\      /  F ield         | OpenFOAM: The Open Source CFD Toolbox           |
|  \\    /   O peration     | Version:  v2012                                 |
|   \\  /    A nd           | Website:  www.openfoam.com                      |
|    \\/     M anipulation  |                                                 |
\*---------------------------------------------------------------------------*/
FoamFile
{
    version     2.0;
    format      ascii;
    class       volVectorField;
    location    "0.3";
    object      U;
}
// * * * * * * * * * * * * * * * * * * * * * * * * * * * * * * * * * * * * * //

dimensions      [0 1 -1 0 0 0 0];


internalField   nonuniform List<vector> 
1250
(
(-0.00705599 -8.09824e-06 0)
(-0.0069977 -2.69407e-05 0)
(-0.00687822 -4.55275e-05 0)
(-0.0066989 -6.3595e-05 0)
(-0.00646197 -8.08713e-05 0)
(-0.00617055 -9.70772e-05 0)
(-0.00582866 -0.000111928 0)
(-0.00544127 -0.000125135 0)
(-0.00501424 -0.000136411 0)
(-0.00455432 -0.000145469 0)
(-0.00406916 -0.00015203 0)
(-0.0035672 -0.000155825 0)
(-0.00305767 -0.000156601 0)
(-0.0025505 -0.00015412 0)
(-0.00205619 -0.000148172 0)
(-0.0015857 -0.000138571 0)
(-0.0011503 -0.00012517 0)
(-0.000761357 -0.000107876 0)
(-0.00042999 -8.66852e-05 0)
(-0.000166604 -6.17802e-05 0)
(1.9941e-05 -3.37499e-05 0)
(0.000123708 -4.07633e-06 0)
(0.000144882 2.37872e-05 0)
(9.98077e-05 4.17695e-05 0)
(3.21221e-05 3.20546e-05 0)
(-0.0199038 -5.41762e-05 0)
(-0.019743 -0.000174792 0)
(-0.0194158 -0.00029357 0)
(-0.0189261 -0.000408805 0)
(-0.01828 -0.000518751 0)
(-0.0174863 -0.000621635 0)
(-0.0165561 -0.000715666 0)
(-0.0155031 -0.000799054 0)
(-0.0143432 -0.000870033 0)
(-0.0130948 -0.000926881 0)
(-0.0117785 -0.000967952 0)
(-0.010417 -0.000991707 0)
(-0.00903483 -0.00099675 0)
(-0.00765823 -0.000981873 0)
(-0.00631468 -0.000946107 0)
(-0.00503248 -0.000888788 0)
(-0.00384019 -0.000809661 0)
(-0.00276589 -0.000709037 0)
(-0.00183607 -0.000588066 0)
(-0.00107414 -0.000449252 0)
(-0.000498199 -0.000297438 0)
(-0.000117609 -0.000141641 0)
(7.24547e-05 1.64327e-06 0)
(0.000102936 0.000101845 0)
(4.21532e-05 9.98192e-05 0)
(-0.0317219 -0.000153736 0)
(-0.0314707 -0.00048922 0)
(-0.0309616 -0.000819348 0)
(-0.0302009 -0.00113936 0)
(-0.0291982 -0.00144442 0)
(-0.0279673 -0.00172961 0)
(-0.0265253 -0.00199003 0)
(-0.0248934 -0.00222077 0)
(-0.0230962 -0.00241706 0)
(-0.0211619 -0.00257427 0)
(-0.019122 -0.00268802 0)
(-0.0170111 -0.0027543 0)
(-0.0148665 -0.00276956 0)
(-0.0127277 -0.00273086 0)
(-0.0106357 -0.00263603 0)
(-0.00863265 -0.0024839 0)
(-0.00676042 -0.00227462 0)
(-0.00505957 -0.0020101 0)
(-0.00356769 -0.00169478 0)
(-0.00231716 -0.0013368 0)
(-0.00133222 -0.000950051 0)
(-0.000624775 -0.000557568 0)
(-0.000188766 -0.000196609 0)
(7.09239e-06 7.28015e-05 0)
(2.53584e-05 0.000146485 0)
(-0.0426982 -0.000296141 0)
(-0.0423671 -0.000934763 0)
(-0.0416978 -0.00156294 0)
(-0.0406986 -0.00217163 0)
(-0.0393823 -0.00275165 0)
(-0.0377666 -0.00329374 0)
(-0.0358741 -0.00378866 0)
(-0.0337322 -0.00422725 0)
(-0.031373 -0.00460058 0)
(-0.0288328 -0.00490008 0)
(-0.0261524 -0.00511774 0)
(-0.0233761 -0.00524627 0)
(-0.0205518 -0.00527936 0)
(-0.0177299 -0.00521195 0)
(-0.0149624 -0.00504055 0)
(-0.0123024 -0.00476373 0)
(-0.00980238 -0.00438266 0)
(-0.00751275 -0.00390196 0)
(-0.00547982 -0.00333093 0)
(-0.00374333 -0.00268542 0)
(-0.00233336 -0.0019907 0)
(-0.00126607 -0.00128591 0)
(-0.000538738 -0.00062997 0)
(-0.00012978 -0.000110772 0)
(-5.92797e-07 0.00013026 0)
(-0.0529866 -0.00047497 0)
(-0.0525849 -0.00149139 0)
(-0.0517736 -0.00249096 0)
(-0.0505627 -0.00345936 0)
(-0.0489677 -0.00438208 0)
(-0.0470097 -0.00524453 0)
(-0.0447159 -0.00603217 0)
(-0.0421189 -0.00673066 0)
(-0.0392568 -0.00732607 0)
(-0.0361732 -0.00780511 0)
(-0.0329162 -0.00815541 0)
(-0.0295386 -0.00836587 0)
(-0.0260967 -0.00842699 0)
(-0.02265 -0.00833137 0)
(-0.0192597 -0.00807421 0)
(-0.015988 -0.00765404 0)
(-0.012896 -0.00707356 0)
(-0.0100426 -0.00634085 0)
(-0.00748169 -0.00547103 0)
(-0.00526013 -0.00448855 0)
(-0.00341471 -0.00343068 0)
(-0.00196816 -0.00235229 0)
(-0.000925035 -0.00133185 0)
(-0.00028001 -0.000480156 0)
(-2.81819e-05 3.54669e-05 0)
(-0.0627195 -0.00068596 0)
(-0.0622554 -0.00214772 0)
(-0.0613175 -0.00358514 0)
(-0.0599171 -0.00497776 0)
(-0.0580717 -0.0063049 0)
(-0.0558056 -0.00754581 0)
(-0.0531495 -0.00867985 0)
(-0.0501405 -0.00968671 0)
(-0.0468218 -0.0105467 0)
(-0.0432427 -0.0112412 0)
(-0.0394578 -0.011753 0)
(-0.0355266 -0.0120664 0)
(-0.0315129 -0.0121687 0)
(-0.0274837 -0.0120497 0)
(-0.0235081 -0.0117034 0)
(-0.0196559 -0.0111282 0)
(-0.0159963 -0.0103288 0)
(-0.0125955 -0.00931697 0)
(-0.00951515 -0.00811396 0)
(-0.00680952 -0.00675296 0)
(-0.00452345 -0.00528274 0)
(-0.0026884 -0.00377246 0)
(-0.00131922 -0.00231707 0)
(-0.000430533 -0.00104483 0)
(-5.45989e-05 -0.000139216 0)
(-0.0720099 -0.000924594 0)
(-0.0714909 -0.0028932 0)
(-0.0704395 -0.00482908 0)
(-0.0688678 -0.00670497 0)
(-0.0667953 -0.0084933 0)
(-0.0642484 -0.0101665 0)
(-0.061261 -0.011697 0)
(-0.0578736 -0.0130581 0)
(-0.0541338 -0.0142236 0)
(-0.0500957 -0.0151688 0)
(-0.0458192 -0.0158712 0)
(-0.0413698 -0.0163105 0)
(-0.0368174 -0.0164697 0)
(-0.0322356 -0.016336 0)
(-0.0277005 -0.0159019 0)
(-0.0232891 -0.0151657 0)
(-0.0190778 -0.0141339 0)
(-0.0151404 -0.0128219 0)
(-0.0115462 -0.0112569 0)
(-0.008358 -0.0094804 0)
(-0.0056299 -0.00755148 0)
(-0.00340392 -0.00555158 0)
(-0.0017072 -0.00358896 0)
(-0.000575799 -0.00180454 0)
(-7.89996e-05 -0.000390856 0)
(-0.0809529 -0.00118614 0)
(-0.0803862 -0.00371806 0)
(-0.0792326 -0.00620826 0)
(-0.0775051 -0.00862206 0)
(-0.0752243 -0.0109244 0)
(-0.0724188 -0.0130803 0)
(-0.0691245 -0.0150549 0)
(-0.0653851 -0.0168141 0)
(-0.0612516 -0.0183249 0)
(-0.056782 -0.0195562 0)
(-0.0520409 -0.0204793 0)
(-0.0470987 -0.0210687 0)
(-0.042031 -0.0213033 0)
(-0.0369173 -0.021167 0)
(-0.0318401 -0.0206503 0)
(-0.0268832 -0.0197514 0)
(-0.0221302 -0.0184779 0)
(-0.0176628 -0.0168488 0)
(-0.0135586 -0.0148965 0)
(-0.00988949 -0.0126697 0)
(-0.00672024 -0.0102366 0)
(-0.00410471 -0.00768876 0)
(-0.00208346 -0.0051448 0)
(-0.000714198 -0.00275462 0)
(-0.000101373 -0.000715369 0)
(-0.0896279 -0.00146572 0)
(-0.0890202 -0.00461353 0)
(-0.0877745 -0.00771026 0)
(-0.0859044 -0.0107133 0)
(-0.0834314 -0.0135797 0)
(-0.0803852 -0.0162665 0)
(-0.0768038 -0.018731 0)
(-0.0727331 -0.0209312 0)
(-0.068227 -0.0228269 0)
(-0.0633468 -0.0243799 0)
(-0.058161 -0.0255549 0)
(-0.0527444 -0.0263208 0)
(-0.0471776 -0.0266515 0)
(-0.0415458 -0.0265274 0)
(-0.0359375 -0.0259365 0)
(-0.0304434 -0.0248761 0)
(-0.0251545 -0.0233547 0)
(-0.0201605 -0.0213938 0)
(-0.0155481 -0.0190304 0)
(-0.0113995 -0.0163193 0)
(-0.00779074 -0.013336 0)
(-0.00478848 -0.0101805 0)
(-0.00244731 -0.00697944 0)
(-0.000846078 -0.00388905 0)
(-0.000122033 -0.00110872 0)
(-0.0980994 -0.00175818 0)
(-0.0974574 -0.00557142 0)
(-0.0961291 -0.00932407 0)
(-0.0941282 -0.0129653 0)
(-0.0914766 -0.0164437 0)
(-0.0882052 -0.019708 0)
(-0.084353 -0.0227072 0)
(-0.0799679 -0.0253911 0)
(-0.0751058 -0.0277115 0)
(-0.0698309 -0.0296225 0)
(-0.0642152 -0.031082 0)
(-0.0583373 -0.0320524 0)
(-0.0522825 -0.0325023 0)
(-0.0461414 -0.0324075 0)
(-0.0400085 -0.0317531 0)
(-0.0339814 -0.0305348 0)
(-0.0281589 -0.0287611 0)
(-0.0226393 -0.0264553 0)
(-0.017519 -0.0236576 0)
(-0.0128911 -0.0204277 0)
(-0.00884388 -0.0168474 0)
(-0.0054575 -0.013023 0)
(-0.00280069 -0.00908756 0)
(-0.000972691 -0.00520215 0)
(-0.000141393 -0.00156752 0)
(-0.106418 -0.00205801 0)
(-0.105749 -0.00658377 0)
(-0.104347 -0.0110395 0)
(-0.102226 -0.0153658 0)
(-0.0994089 -0.0195028 0)
(-0.0959257 -0.0233902 0)
(-0.0918169 -0.0269684 0)
(-0.0871315 -0.0301786 0)
(-0.0819272 -0.0329641 0)
(-0.0762706 -0.0352708 0)
(-0.0702362 -0.0370488 0)
(-0.0639067 -0.0382537 0)
(-0.0573715 -0.0388477 0)
(-0.0507264 -0.0388017 0)
(-0.0440721 -0.0380967 0)
(-0.0375133 -0.036726 0)
(-0.0311568 -0.0346971 0)
(-0.0251102 -0.0320338 0)
(-0.0194803 -0.0287787 0)
(-0.0143718 -0.0249951 0)
(-0.00988589 -0.0207694 0)
(-0.00611656 -0.0162133 0)
(-0.00314683 -0.011465 0)
(-0.00109567 -0.00668954 0)
(-0.000159872 -0.00208927 0)
(-0.114623 -0.00235928 0)
(-0.113934 -0.00764253 0)
(-0.112467 -0.0128467 0)
(-0.110237 -0.0179037 0)
(-0.107266 -0.0227445 0)
(-0.103584 -0.0273001 0)
(-0.0992313 -0.0315015 0)
(-0.0942585 -0.0352809 0)
(-0.0887242 -0.0385726 0)
(-0.0826968 -0.0413138 0)
(-0.0762533 -0.0434462 0)
(-0.0694796 -0.0449174 0)
(-0.0624694 -0.0456829 0)
(-0.0553235 -0.0457072 0)
(-0.0481488 -0.0449665 0)
(-0.0410574 -0.0434504 0)
(-0.0341645 -0.0411645 0)
(-0.0275876 -0.0381319 0)
(-0.0214444 -0.0343962 0)
(-0.0158519 -0.030023 0)
(-0.010925 -0.0251024 0)
(-0.00677174 -0.0197504 0)
(-0.0034896 -0.0141095 0)
(-0.00121678 -0.00834862 0)
(-0.000177863 -0.00267243 0)
(-0.122738 -0.00265555 0)
(-0.122036 -0.00873936 0)
(-0.120515 -0.0147356 0)
(-0.118187 -0.0205674 0)
(-0.115074 -0.0261566 0)
(-0.111206 -0.0314248 0)
(-0.106623 -0.0362936 0)
(-0.101375 -0.0406858 0)
(-0.0955229 -0.044526 0)
(-0.0891352 -0.0477419 0)
(-0.0822915 -0.0502662 0)
(-0.0750803 -0.0520379 0)
(-0.0675994 -0.0530042 0)
(-0.0599547 -0.0531226 0)
(-0.0522594 -0.0523631 0)
(-0.0446329 -0.0507106 0)
(-0.0371996 -0.0481671 0)
(-0.0300872 -0.044754 0)
(-0.0234251 -0.0405145 0)
(-0.0173432 -0.0355155 0)
(-0.0119705 -0.0298494 0)
(-0.00742974 -0.0236359 0)
(-0.00383305 -0.0170213 0)
(-0.00133775 -0.0101788 0)
(-0.000195725 -0.00331643 0)
(-0.130777 -0.00293986 0)
(-0.130071 -0.00986538 0)
(-0.128505 -0.0166958 0)
(-0.126091 -0.0233451 0)
(-0.122849 -0.0297262 0)
(-0.118808 -0.0357512 0)
(-0.114008 -0.0413318 0)
(-0.1085 -0.0463809 0)
(-0.102342 -0.0508128 0)
(-0.0956054 -0.0545454 0)
(-0.0883706 -0.0575013 0)
(-0.0807291 -0.0596097 0)
(-0.0727821 -0.0608087 0)
(-0.0646404 -0.0610475 0)
(-0.0564236 -0.0602885 0)
(-0.048259 -0.0585105 0)
(-0.0402801 -0.0557104 0)
(-0.0326255 -0.0519066 0)
(-0.0254369 -0.0471404 0)
(-0.0188577 -0.0414788 0)
(-0.0130318 -0.0350158 0)
(-0.00809734 -0.0278738 0)
(-0.00418125 -0.0202031 0)
(-0.00146027 -0.0121814 0)
(-0.000213786 -0.0040216 0)
(-0.138739 -0.00320472 0)
(-0.138038 -0.011011 0)
(-0.136439 -0.0187157 0)
(-0.133951 -0.0262241 0)
(-0.130594 -0.0334396 0)
(-0.126396 -0.0402649 0)
(-0.121396 -0.0466016 0)
(-0.115641 -0.0523523 0)
(-0.109193 -0.0574206 0)
(-0.10212 -0.0617135 0)
(-0.0945051 -0.0651427 0)
(-0.0864416 -0.0676267 0)
(-0.0780342 -0.0690931 0)
(-0.0693982 -0.0694813 0)
(-0.0606596 -0.0687448 0)
(-0.0519535 -0.0668545 0)
(-0.0434232 -0.0638009 0)
(-0.0352185 -0.0595975 0)
(-0.0274939 -0.0542826 0)
(-0.0204075 -0.0479218 0)
(-0.0141186 -0.0406098 0)
(-0.00878125 -0.0324712 0)
(-0.00453811 -0.0236603 0)
(-0.00158594 -0.0143597 0)
(-0.000232341 -0.00478913 0)
(-0.146611 -0.00344212 0)
(-0.145924 -0.0121658 0)
(-0.144303 -0.0207828 0)
(-0.141757 -0.0291897 0)
(-0.138301 -0.037281 0)
(-0.133964 -0.0449494 0)
(-0.128781 -0.0520865 0)
(-0.122799 -0.058584 0)
(-0.116076 -0.0643344 0)
(-0.108683 -0.069233 0)
(-0.100702 -0.0731796 0)
(-0.0922282 -0.0760808 0)
(-0.0833682 -0.0778524 0)
(-0.0742423 -0.0784223 0)
(-0.0649827 -0.0777335 0)
(-0.0557325 -0.0757472 0)
(-0.0466448 -0.0724458 0)
(-0.0378812 -0.0678361 0)
(-0.0296101 -0.0619517 0)
(-0.0220044 -0.0548556 0)
(-0.01524 -0.0466422 0)
(-0.00948792 -0.0374378 0)
(-0.0049074 -0.0274007 0)
(-0.00171624 -0.0167192 0)
(-0.000251666 -0.00562103 0)
(-0.154364 -0.00364361 0)
(-0.153703 -0.0133183 0)
(-0.152074 -0.022883 0)
(-0.149485 -0.0322258 0)
(-0.14595 -0.0412323 0)
(-0.141493 -0.0497856 0)
(-0.136149 -0.0577669 0)
(-0.129961 -0.0650567 0)
(-0.122986 -0.071536 0)
(-0.115293 -0.0770875 0)
(-0.106963 -0.0815981 0)
(-0.0980926 -0.0849612 0)
(-0.0887912 -0.0870792 0)
(-0.0791827 -0.087867 0)
(-0.069405 -0.087255 0)
(-0.0596093 -0.0851928 0)
(-0.0499589 -0.0816525 0)
(-0.0406277 -0.0766325 0)
(-0.0317981 -0.0701598 0)
(-0.0236593 -0.0622936 0)
(-0.0164047 -0.0531264 0)
(-0.0102235 -0.042786 0)
(-0.0052927 -0.0314345 0)
(-0.0018526 -0.0192668 0)
(-0.000272016 -0.00652004 0)
(-0.161958 -0.00380038 0)
(-0.161332 -0.014456 0)
(-0.159711 -0.0250005 0)
(-0.157097 -0.0353137 0)
(-0.153504 -0.0452726 0)
(-0.148952 -0.0547507 0)
(-0.143472 -0.0636191 0)
(-0.137104 -0.0717469 0)
(-0.129903 -0.0790026 0)
(-0.121934 -0.085256 0)
(-0.113278 -0.0903798 0)
(-0.104031 -0.0942528 0)
(-0.0943042 -0.0967625 0)
(-0.0842242 -0.0978087 0)
(-0.0739346 -0.0973072 0)
(-0.0635946 -0.0951937 0)
(-0.0533775 -0.0914279 0)
(-0.04347 -0.0859972 0)
(-0.0340696 -0.0789205 0)
(-0.0253825 -0.0702508 0)
(-0.0176211 -0.0600782 0)
(-0.010994 -0.0485307 0)
(-0.00569745 -0.0357744 0)
(-0.00199639 -0.0220113 0)
(-0.000293635 -0.00748964 0)
(-0.169333 -0.00390344 0)
(-0.168754 -0.0155657 0)
(-0.167156 -0.0271176 0)
(-0.16454 -0.038432 0)
(-0.160914 -0.0493773 0)
(-0.156294 -0.0598181 0)
(-0.150708 -0.069615 0)
(-0.144193 -0.0786258 0)
(-0.136797 -0.0867062 0)
(-0.128583 -0.093712 0)
(-0.119631 -0.0995009 0)
(-0.110033 -0.103935 0)
(-0.0999012 -0.106887 0)
(-0.0893659 -0.108237 0)
(-0.078575 -0.107885 0)
(-0.067695 -0.10575 0)
(-0.0569096 -0.101778 0)
(-0.0464185 -0.0959407 0)
(-0.036435 -0.0882478 0)
(-0.0271837 -0.0787441 0)
(-0.0188969 -0.0675153 0)
(-0.0118049 -0.0546891 0)
(-0.00612497 -0.0404352 0)
(-0.00214894 -0.0249632 0)
(-0.000316761 -0.008534 0)
(-0.176414 -0.00394377 0)
(-0.175895 -0.0166327 0)
(-0.174338 -0.0292149 0)
(-0.171742 -0.0415564 0)
(-0.168111 -0.0535182 0)
(-0.163457 -0.0649561 0)
(-0.157801 -0.0757208 0)
(-0.151175 -0.0856585 0)
(-0.143624 -0.0946119 0)
(-0.135204 -0.102422 0)
(-0.125991 -0.108931 0)
(-0.116075 -0.113982 0)
(-0.105568 -0.117429 0)
(-0.0946003 -0.119135 0)
(-0.0833243 -0.118978 0)
(-0.0719134 -0.11686 0)
(-0.0605614 -0.112705 0)
(-0.0494815 -0.106472 0)
(-0.0389035 -0.0981559 0)
(-0.0290714 -0.0877911 0)
(-0.0202396 -0.0754573 0)
(-0.0126617 -0.0612806 0)
(-0.00657851 -0.0454338 0)
(-0.00231154 -0.0281347 0)
(-0.000341633 -0.00965797 0)
(-0.183108 -0.00391262 0)
(-0.18266 -0.0176417 0)
(-0.181164 -0.0312705 0)
(-0.178614 -0.0446593 0)
(-0.17501 -0.0576624 0)
(-0.170359 -0.0701277 0)
(-0.164676 -0.0818963 0)
(-0.157986 -0.092803 0)
(-0.150325 -0.102677 0)
(-0.141747 -0.111345 0)
(-0.132318 -0.11863 0)
(-0.122127 -0.124359 0)
(-0.111281 -0.128362 0)
(-0.0999123 -0.130481 0)
(-0.0881746 -0.130572 0)
(-0.0762479 -0.128514 0)
(-0.0643358 -0.12421 0)
(-0.052665 -0.117599 0)
(-0.0414827 -0.108659 0)
(-0.0310536 -0.0974104 0)
(-0.0216563 -0.0839254 0)
(-0.0135698 -0.0683266 0)
(-0.00706132 -0.0507891 0)
(-0.00248555 -0.0315394 0)
(-0.000368497 -0.0108671 0)
(-0.1893 -0.00380184 0)
(-0.188935 -0.0185766 0)
(-0.18752 -0.0332606 0)
(-0.185046 -0.0477097 0)
(-0.181507 -0.0617726 0)
(-0.176902 -0.07529 0)
(-0.171241 -0.0880942 0)
(-0.164539 -0.100009 0)
(-0.156826 -0.110851 0)
(-0.148146 -0.120429 0)
(-0.138558 -0.12855 0)
(-0.128144 -0.135019 0)
(-0.117008 -0.139645 0)
(-0.105278 -0.142242 0)
(-0.093111 -0.142643 0)
(-0.0806914 -0.140699 0)
(-0.0682318 -0.136288 0)
(-0.0559725 -0.129326 0)
(-0.0441787 -0.119768 0)
(-0.0331375 -0.10762 0)
(-0.0231535 -0.0929417 0)
(-0.0145344 -0.0758502 0)
(-0.0075767 -0.0565222 0)
(-0.00267233 -0.0351927 0)
(-0.000397614 -0.0121675 0)
(-0.194855 -0.00360421 0)
(-0.194586 -0.0194207 0)
(-0.193274 -0.0351594 0)
(-0.190907 -0.050673 0)
(-0.187473 -0.065806 0)
(-0.182965 -0.0803934 0)
(-0.177382 -0.0942593 0)
(-0.170731 -0.107217 0)
(-0.163032 -0.119071 0)
(-0.154318 -0.129613 0)
(-0.144639 -0.138632 0)
(-0.134067 -0.145909 0)
(-0.122701 -0.151228 0)
(-0.110663 -0.154378 0)
(-0.0981106 -0.155159 0)
(-0.0852306 -0.153394 0)
(-0.0722441 -0.14893 0)
(-0.0594047 -0.141653 0)
(-0.0469962 -0.131495 0)
(-0.0353296 -0.118439 0)
(-0.0247381 -0.102529 0)
(-0.015561 -0.0838762 0)
(-0.00812814 -0.0626559 0)
(-0.00287336 -0.0391114 0)
(-0.000429269 -0.0135663 0)
(-0.199617 -0.00331393 0)
(-0.199453 -0.0201573 0)
(-0.198268 -0.0369392 0)
(-0.196042 -0.053511 0)
(-0.192759 -0.0697149 0)
(-0.188402 -0.0853812 0)
(-0.182962 -0.100328 0)
(-0.176435 -0.114358 0)
(-0.168828 -0.127264 0)
(-0.160161 -0.138823 0)
(-0.150472 -0.148801 0)
(-0.139823 -0.156958 0)
(-0.128301 -0.163049 0)
(-0.116023 -0.166832 0)
(-0.103141 -0.168076 0)
(-0.0898454 -0.166566 0)
(-0.0763625 -0.162115 0)
(-0.062959 -0.154575 0)
(-0.0499379 -0.143844 0)
(-0.0376356 -0.129882 0)
(-0.0264165 -0.112711 0)
(-0.0166553 -0.0924309 0)
(-0.00871938 -0.0692151 0)
(-0.00309027 -0.0433144 0)
(-0.000463782 -0.0150711 0)
(-0.203402 -0.00292712 0)
(-0.203354 -0.0207697 0)
(-0.202317 -0.0385706 0)
(-0.20027 -0.0561821 0)
(-0.197187 -0.0734458 0)
(-0.193045 -0.0901895 0)
(-0.187821 -0.106226 0)
(-0.1815 -0.121352 0)
(-0.174075 -0.135345 0)
(-0.16555 -0.147969 0)
(-0.155949 -0.158969 0)
(-0.145319 -0.16808 0)
(-0.133733 -0.175028 0)
(-0.121298 -0.179537 0)
(-0.10816 -0.181337 0)
(-0.0945073 -0.180173 0)
(-0.080571 -0.175817 0)
(-0.0666295 -0.168078 0)
(-0.053005 -0.156819 0)
(-0.0400608 -0.141964 0)
(-0.0281955 -0.123511 0)
(-0.0178233 -0.101542 0)
(-0.00935459 -0.0762268 0)
(-0.00332492 -0.0478223 0)
(-0.000501525 -0.0166907 0)
(-0.206002 -0.00244236 0)
(-0.206077 -0.0212418 0)
(-0.205213 -0.0400229 0)
(-0.203383 -0.0586412 0)
(-0.200554 -0.0769399 0)
(-0.196695 -0.0947468 0)
(-0.19177 -0.111872 0)
(-0.185749 -0.128105 0)
(-0.178609 -0.143214 0)
(-0.170337 -0.156948 0)
(-0.160938 -0.169032 0)
(-0.150441 -0.179174 0)
(-0.138902 -0.18707 0)
(-0.126414 -0.192405 0)
(-0.113112 -0.194868 0)
(-0.0991785 -0.194156 0)
(-0.0848471 -0.189994 0)
(-0.070406 -0.182142 0)
(-0.0561964 -0.170414 0)
(-0.0426098 -0.154695 0)
(-0.0300821 -0.13495 0)
(-0.019072 -0.111238 0)
(-0.0100385 -0.0837202 0)
(-0.00357944 -0.0526579 0)
(-0.000542938 -0.0184348 0)
(-0.207183 -0.00186128 0)
(-0.207385 -0.0215589 0)
(-0.206716 -0.0412649 0)
(-0.205144 -0.0608405 0)
(-0.202628 -0.0801335 0)
(-0.199126 -0.098974 0)
(-0.19459 -0.117172 0)
(-0.188974 -0.134512 0)
(-0.182236 -0.150757 0)
(-0.174344 -0.165639 0)
(-0.165281 -0.178864 0)
(-0.155053 -0.190116 0)
(-0.143694 -0.199055 0)
(-0.131279 -0.205328 0)
(-0.117926 -0.208573 0)
(-0.103809 -0.208439 0)
(-0.08916 -0.20459 0)
(-0.0742734 -0.19673 0)
(-0.0595087 -0.184617 0)
(-0.0452867 -0.168082 0)
(-0.032084 -0.14705 0)
(-0.020409 -0.12155 0)
(-0.0107768 -0.0917269 0)
(-0.00385641 -0.0578466 0)
(-0.000588553 -0.0203142 0)
(-0.206679 -0.00118916 0)
(-0.207012 -0.0217079 0)
(-0.20656 -0.0422647 0)
(-0.205286 -0.0627296 0)
(-0.203143 -0.0829578 0)
(-0.200078 -0.102785 0)
(-0.19603 -0.122023 0)
(-0.190936 -0.140458 0)
(-0.184732 -0.157843 0)
(-0.177364 -0.173902 0)
(-0.16879 -0.188323 0)
(-0.158988 -0.200761 0)
(-0.147968 -0.210843 0)
(-0.135777 -0.218173 0)
(-0.122514 -0.222337 0)
(-0.108337 -0.222923 0)
(-0.0934692 -0.219531 0)
(-0.0782104 -0.211794 0)
(-0.0629354 -0.199403 0)
(-0.0480951 -0.182125 0)
(-0.0342098 -0.159829 0)
(-0.0218436 -0.132507 0)
(-0.0115761 -0.100281 0)
(-0.00415898 -0.0634167 0)
(-0.000639033 -0.0223415 0)
(-0.2042 -0.000435469 0)
(-0.204662 -0.0216784 0)
(-0.204445 -0.0429916 0)
(-0.20351 -0.064257 0)
(-0.201804 -0.0853404 0)
(-0.199262 -0.106087 0)
(-0.195808 -0.126314 0)
(-0.191361 -0.14581 0)
(-0.185837 -0.164328 0)
(-0.179154 -0.18158 0)
(-0.171243 -0.19724 0)
(-0.16205 -0.210938 0)
(-0.151553 -0.222266 0)
(-0.139769 -0.230781 0)
(-0.126766 -0.236014 0)
(-0.11268 -0.237485 0)
(-0.097722 -0.234717 0)
(-0.0821882 -0.227265 0)
(-0.0664667 -0.214734 0)
(-0.0510379 -0.196814 0)
(-0.036469 -0.173304 0)
(-0.0233867 -0.144142 0)
(-0.0124448 -0.109421 0)
(-0.00449106 -0.0694001 0)
(-0.000695211 -0.0245307 0)
(-0.199423 0.000385657 0)
(-0.200007 -0.0214629 0)
(-0.200043 -0.0434159 0)
(-0.199488 -0.0653703 0)
(-0.198281 -0.0872062 0)
(-0.196349 -0.108781 0)
(-0.193601 -0.129924 0)
(-0.189937 -0.150428 0)
(-0.185251 -0.170049 0)
(-0.179433 -0.188495 0)
(-0.17238 -0.205426 0)
(-0.164005 -0.22045 0)
(-0.154247 -0.233125 0)
(-0.143082 -0.24296 0)
(-0.130545 -0.249426 0)
(-0.116738 -0.251968 0)
(-0.10185 -0.250024 0)
(-0.0861679 -0.243051 0)
(-0.0700876 -0.230555 0)
(-0.054117 -0.212129 0)
(-0.0388729 -0.187483 0)
(-0.0250517 -0.156487 0)
(-0.0133932 -0.119188 0)
(-0.00485764 -0.0758334 0)
(-0.000758163 -0.0268986 0)
(-0.191997 0.00125507 0)
(-0.192693 -0.021058 0)
(-0.192995 -0.0435108 0)
(-0.192856 -0.0660185 0)
(-0.192212 -0.0884791 0)
(-0.190978 -0.110767 0)
(-0.189052 -0.132725 0)
(-0.186314 -0.154159 0)
(-0.182635 -0.174831 0)
(-0.177876 -0.19445 0)
(-0.171899 -0.212666 0)
(-0.164577 -0.229071 0)
(-0.155803 -0.243188 0)
(-0.145509 -0.254482 0)
(-0.133681 -0.262358 0)
(-0.120382 -0.26618 0)
(-0.105765 -0.265288 0)
(-0.0900979 -0.259029 0)
(-0.0737766 -0.246788 0)
(-0.0573329 -0.228035 0)
(-0.0414346 -0.202372 0)
(-0.0268555 -0.169574 0)
(-0.0144346 -0.129629 0)
(-0.00526517 -0.0827586 0)
(-0.000829292 -0.0294645 0)
(-0.181544 0.00214852 0)
(-0.182337 -0.0204648 0)
(-0.182912 -0.0432531 0)
(-0.183223 -0.066153 0)
(-0.1832 -0.0890838 0)
(-0.182753 -0.111941 0)
(-0.181765 -0.134586 0)
(-0.1801 -0.156844 0)
(-0.177606 -0.178486 0)
(-0.174113 -0.19923 0)
(-0.169448 -0.218724 0)
(-0.163438 -0.236545 0)
(-0.155928 -0.252191 0)
(-0.146794 -0.26508 0)
(-0.135965 -0.274552 0)
(-0.123449 -0.279884 0)
(-0.109352 -0.280308 0)
(-0.0939084 -0.27504 0)
(-0.0775027 -0.263323 0)
(-0.0606835 -0.244479 0)
(-0.0441693 -0.217965 0)
(-0.0288187 -0.183436 0)
(-0.015586 -0.140794 0)
(-0.00572207 -0.0902253 0)
(-0.000910466 -0.032252 0)
(-0.16766 0.00303682 0)
(-0.16853 -0.0196895 0)
(-0.169381 -0.0426248 0)
(-0.170169 -0.0657299 0)
(-0.170821 -0.0889489 0)
(-0.171242 -0.112202 0)
(-0.171305 -0.135376 0)
(-0.17086 -0.158317 0)
(-0.169732 -0.180817 0)
(-0.167723 -0.202606 0)
(-0.164621 -0.22334 0)
(-0.160208 -0.242589 0)
(-0.154272 -0.259831 0)
(-0.146628 -0.274443 0)
(-0.137136 -0.285701 0)
(-0.125733 -0.292793 0)
(-0.112461 -0.294829 0)
(-0.0975053 -0.290879 0)
(-0.0812209 -0.280015 0)
(-0.064162 -0.261377 0)
(-0.0470942 -0.234242 0)
(-0.0309676 -0.198103 0)
(-0.0168694 -0.152744 0)
(-0.00623955 -0.0982922 0)
(-0.00100421 -0.0352895 0)
(-0.14992 0.00388644 0)
(-0.150841 -0.0187437 0)
(-0.151965 -0.0416141 0)
(-0.153249 -0.0647122 0)
(-0.154622 -0.08801 0)
(-0.155984 -0.111456 0)
(-0.157203 -0.134967 0)
(-0.158118 -0.158415 0)
(-0.158534 -0.181622 0)
(-0.158228 -0.204339 0)
(-0.156951 -0.226237 0)
(-0.154438 -0.246891 0)
(-0.150418 -0.265769 0)
(-0.144635 -0.282214 0)
(-0.136868 -0.295445 0)
(-0.126969 -0.304558 0)
(-0.114897 -0.308535 0)
(-0.10076 -0.306281 0)
(-0.0848654 -0.296669 0)
(-0.0677536 -0.278615 0)
(-0.0502283 -0.251165 0)
(-0.033335 -0.213602 0)
(-0.018314 -0.165546 0)
(-0.00683272 -0.107031 0)
(-0.001114 -0.0386124 0)
(-0.12788 0.00466062 0)
(-0.128823 -0.0176443 0)
(-0.130209 -0.0402168 0)
(-0.131999 -0.0630725 0)
(-0.134125 -0.0862132 0)
(-0.136489 -0.109619 0)
(-0.138955 -0.13324 0)
(-0.141357 -0.156984 0)
(-0.143485 -0.180705 0)
(-0.145095 -0.204187 0)
(-0.145906 -0.227127 0)
(-0.145607 -0.249119 0)
(-0.143868 -0.269631 0)
(-0.140355 -0.287989 0)
(-0.134756 -0.303363 0)
(-0.12682 -0.314762 0)
(-0.116398 -0.321037 0)
(-0.103496 -0.32091 0)
(-0.0883391 -0.313024 0)
(-0.0714294 -0.296025 0)
(-0.0535903 -0.268667 0)
(-0.0359618 -0.229954 0)
(-0.0199581 -0.179275 0)
(-0.0075222 -0.116527 0)
(-0.00124472 -0.0422654 0)
(-0.101086 0.00532096 0)
(-0.102021 -0.0164136 0)
(-0.103651 -0.0384377 0)
(-0.105946 -0.0607955 0)
(-0.108842 -0.0835198 0)
(-0.112247 -0.106625 0)
(-0.11603 -0.130097 0)
(-0.120022 -0.153884 0)
(-0.124008 -0.177881 0)
(-0.127731 -0.201914 0)
(-0.130883 -0.225721 0)
(-0.133113 -0.248925 0)
(-0.134032 -0.271017 0)
(-0.133229 -0.29132 0)
(-0.130292 -0.308974 0)
(-0.124849 -0.322912 0)
(-0.116616 -0.331856 0)
(-0.105464 -0.334337 0)
(-0.0914967 -0.328737 0)
(-0.0751359 -0.313374 0)
(-0.0571951 -0.28664 0)
(-0.0388984 -0.247167 0)
(-0.0218528 -0.194021 0)
(-0.00833671 -0.126892 0)
(-0.0014034 -0.0463062 0)
(-0.0690833 0.00582971 0)
(-0.0699765 -0.0150786 0)
(-0.0718267 -0.0362914 0)
(-0.0746103 -0.0578808 0)
(-0.078275 -0.0799107 0)
(-0.0827371 -0.10243 0)
(-0.087876 -0.125464 0)
(-0.0935293 -0.149004 0)
(-0.099487 -0.172993 0)
(-0.105485 -0.197309 0)
(-0.111203 -0.221741 0)
(-0.116259 -0.245965 0)
(-0.120213 -0.269509 0)
(-0.122578 -0.291723 0)
(-0.122839 -0.311736 0)
(-0.120489 -0.328431 0)
(-0.115083 -0.340416 0)
(-0.106316 -0.346024 0)
(-0.094119 -0.343352 0)
(-0.0787776 -0.330337 0)
(-0.0610458 -0.304914 0)
(-0.0422045 -0.265223 0)
(-0.0240663 -0.209882 0)
(-0.00931685 -0.138261 0)
(-0.00160047 -0.0508107 0)
(-0.0314234 0.00615263 0)
(-0.0322441 -0.0136695 0)
(-0.0342828 -0.033803 0)
(-0.0375257 -0.0543461 0)
(-0.0419334 -0.0753916 0)
(-0.047437 -0.0970222 0)
(-0.0539325 -0.119303 0)
(-0.061274 -0.142271 0)
(-0.0692657 -0.165922 0)
(-0.077653 -0.190194 0)
(-0.0861143 -0.214942 0)
(-0.0942527 -0.23991 0)
(-0.101592 -0.26469 0)
(-0.107581 -0.288686 0)
(-0.111602 -0.311054 0)
(-0.113007 -0.330658 0)
(-0.111167 -0.34602 0)
(-0.105557 -0.355293 0)
(-0.0958729 -0.356271 0)
(-0.0821875 -0.346457 0)
(-0.0651181 -0.323222 0)
(-0.0459478 -0.284065 0)
(-0.0266901 -0.226968 0)
(-0.0105212 -0.15081 0)
(-0.00185185 -0.0558817 0)
(0.0123194 0.0062624 0)
(0.0115983 -0.0122183 0)
(0.00940823 -0.0310087 0)
(0.00575196 -0.050229 0)
(0.00065318 -0.0699979 0)
(-0.00583908 -0.0904289 0)
(-0.0136444 -0.111624 0)
(-0.0226429 -0.133668 0)
(-0.0326656 -0.15661 0)
(-0.0434829 -0.180456 0)
(-0.054791 -0.205136 0)
(-0.0661992 -0.230479 0)
(-0.0772173 -0.256172 0)
(-0.0872481 -0.281702 0)
(-0.0955897 -0.306297 0)
(-0.101454 -0.328852 0)
(-0.104013 -0.347852 0)
(-0.102481 -0.361305 0)
(-0.0962493 -0.366712 0)
(-0.0850769 -0.361098 0)
(-0.0693304 -0.34116 0)
(-0.0501949 -0.30356 0)
(-0.0298454 -0.245386 0)
(-0.0120361 -0.164765 0)
(-0.00218283 -0.0616609 0)
(0.0625347 0.00614232 0)
(0.0619331 -0.0107571 0)
(0.0596333 -0.0279554 0)
(0.0556262 -0.0455896 0)
(0.0499175 -0.063799 0)
(0.0425322 -0.0827228 0)
(0.0335206 -0.102497 0)
(0.0229668 -0.123247 0)
(0.0109998 -0.145078 0)
(-0.00219262 -0.168064 0)
(-0.0163471 -0.19222 0)
(-0.0311054 -0.217475 0)
(-0.0459936 -0.243631 0)
(-0.0604023 -0.270301 0)
(-0.0735739 -0.296832 0)
(-0.0846029 -0.322216 0)
(-0.0924636 -0.344972 0)
(-0.0960816 -0.363034 0)
(-0.0944698 -0.373657 0)
(-0.0869535 -0.373375 0)
(-0.0734873 -0.358106 0)
(-0.0549897 -0.323443 0)
(-0.0336901 -0.265228 0)
(-0.0139914 -0.180418 0)
(-0.00263518 -0.068351 0)
(0.119557 0.00579011 0)
(0.119085 -0.00931543 0)
(0.116721 -0.0247004 0)
(0.112442 -0.0405118 0)
(0.106236 -0.0569024 0)
(0.0981001 -0.0740302 0)
(0.0880497 -0.092057 0)
(0.0761247 -0.111144 0)
(0.0624017 -0.131448 0)
(0.0470092 -0.153104 0)
(0.0301464 -0.176217 0)
(0.0121081 -0.200825 0)
(-0.00668659 -0.226864 0)
(-0.025662 -0.254106 0)
(-0.0440539 -0.282077 0)
(-0.0608851 -0.309938 0)
(-0.0749639 -0.336343 0)
(-0.0849245 -0.359264 0)
(-0.0893451 -0.375807 0)
(-0.0869851 -0.382066 0)
(-0.0771742 -0.373112 0)
(-0.0603002 -0.343223 0)
(-0.0384183 -0.286518 0)
(-0.0165854 -0.198141 0)
(-0.00328052 -0.0762503 0)
(0.183649 0.00522115 0)
(0.183304 -0.00791863 0)
(0.18092 -0.0213103 0)
(0.176465 -0.0351034 0)
(0.169906 -0.0494559 0)
(0.161212 -0.0645354 0)
(0.15036 -0.0805198 0)
(0.13734 -0.0975966 0)
(0.122166 -0.11596 0)
(0.104892 -0.135805 0)
(0.0856309 -0.157313 0)
(0.0645809 -0.180634 0)
(0.0420619 -0.205849 0)
(0.0185591 -0.232916 0)
(-0.00522647 -0.261585 0)
(-0.0283234 -0.291274 0)
(-0.0494463 -0.320892 0)
(-0.0669851 -0.348603 0)
(-0.0790696 -0.371541 0)
(-0.0837785 -0.385508 0)
(-0.0795655 -0.384751 0)
(-0.0659003 -0.362015 0)
(-0.0442369 -0.30911 0)
(-0.0201215 -0.218397 0)
(-0.0042451 -0.085814 0)
(0.254973 0.00447073 0)
(0.254741 -0.00658573 0)
(0.252385 -0.0178602 0)
(0.247864 -0.0294965 0)
(0.241128 -0.0416486 0)
(0.232118 -0.0544835 0)
(0.220773 -0.0681836 0)
(0.207031 -0.0829489 0)
(0.190838 -0.0989979 0)
(0.172164 -0.116566 0)
(0.151016 -0.135901 0)
(0.127468 -0.157249 0)
(0.101695 -0.180831 0)
(0.0740282 -0.206801 0)
(0.0450185 -0.235168 0)
(0.0155213 -0.26568 0)
(-0.0132109 -0.297628 0)
(-0.0394442 -0.329569 0)
(-0.0609328 -0.358927 0)
(-0.0750319 -0.381493 0)
(-0.0790772 -0.390898 0)
(-0.0711136 -0.378272 0)
(-0.0512714 -0.332485 0)
(-0.0250518 -0.241711 0)
(-0.00575395 -0.0977608 0)
(0.333579 0.00359439 0)
(0.333431 -0.00532907 0)
(0.331149 -0.0144323 0)
(0.326687 -0.0238455 0)
(0.319979 -0.0337097 0)
(0.310943 -0.0441805 0)
(0.299483 -0.0554321 0)
(0.285488 -0.0676616 0)
(0.26884 -0.0810931 0)
(0.249419 -0.0959816 0)
(0.22712 -0.112614 0)
(0.201872 -0.131308 0)
(0.17367 -0.152401 0)
(0.14263 -0.176224 0)
(0.109059 -0.203052 0)
(0.0735609 -0.233003 0)
(0.0371731 -0.265861 0)
(0.00153667 -0.300783 0)
(-0.0309393 -0.335822 0)
(-0.0570058 -0.36722 0)
(-0.0727608 -0.388478 0)
(-0.0742791 -0.389361 0)
(-0.0592845 -0.355323 0)
(-0.0319918 -0.268524 0)
(-0.00819917 -0.113241 0)
(0.419374 0.00266561 0)
(0.419273 -0.00415531 0)
(0.417114 -0.0111158 0)
(0.412847 -0.0183258 0)
(0.406398 -0.0259054 0)
(0.397669 -0.0339891 0)
(0.386535 -0.0427305 0)
(0.372846 -0.052308 0)
(0.356429 -0.0629314 0)
(0.337084 -0.0748489 0)
(0.314599 -0.0883553 0)
(0.288754 -0.103799 0)
(0.259352 -0.121587 0)
(0.22625 -0.142182 0)
(0.189432 -0.166081 0)
(0.14911 -0.193757 0)
(0.10589 -0.225538 0)
(0.0610048 -0.261343 0)
(0.0166323 -0.300209 0)
(-0.0237745 -0.339447 0)
(-0.0552848 -0.373289 0)
(-0.0716714 -0.390992 0)
(-0.0669128 -0.374741 0)
(-0.0415364 -0.298748 0)
(-0.0121936 -0.134045 0)
(0.512109 0.00177009 0)
(0.512013 -0.00306874 0)
(0.510029 -0.00800787 0)
(0.506108 -0.013132 0)
(0.500172 -0.0185346 0)
(0.492115 -0.0243215 0)
(0.481798 -0.0306157 0)
(0.469047 -0.0375633 0)
(0.453651 -0.0453407 0)
(0.435354 -0.0541635 0)
(0.413859 -0.0642985 0)
(0.388821 -0.0760773 0)
(0.359863 -0.0899136 0)
(0.326586 -0.10632 0)
(0.288614 -0.125922 0)
(0.245672 -0.149457 0)
(0.197728 -0.177723 0)
(0.145249 -0.211438 0)
(0.0896103 -0.25087 0)
(0.0336942 -0.295038 0)
(-0.0173573 -0.340116 0)
(-0.055421 -0.376582 0)
(-0.0697306 -0.384945 0)
(-0.0532977 -0.330658 0)