/*--------------------------------*- C++ -*----------------------------------*\
| =========                 |                                                 |
| \\      /  F ield         | OpenFOAM: The Open Source CFD Toolbox           |
|  \\    /   O peration     | Version:  v2012                                 |
|   \\  /    A nd           | Website:  www.openfoam.com                      |
|    \\/     M anipulation  |                                                 |
\*---------------------------------------------------------------------------*/
FoamFile
{
    version     2.0;
    format      ascii;
    class       volVectorField;
    location    "0.25";
    object      U;
}
// * * * * * * * * * * * * * * * * * * * * * * * * * * * * * * * * * * * * * //

dimensions      [0 1 -1 0 0 0 0];


internalField   nonuniform List<vector> 
2500
(
(3.2662e-05 -3.27929e-05 0)
(9.87346e-05 -4.0697e-05 0)
(0.000137255 -2.09665e-05 0)
(0.000106183 7.85684e-06 0)
(-8.7538e-06 3.77245e-05 0)
(-0.000206002 6.53319e-05 0)
(-0.000478224 8.93674e-05 0)
(-0.000815603 0.000109418 0)
(-0.0012072 0.00012546 0)
(-0.00164174 0.000137631 0)
(-0.00210808 0.000146138 0)
(-0.00259543 0.00015121 0)
(-0.00309348 0.00015309 0)
(-0.00359254 0.000152018 0)
(-0.00408355 0.000148233 0)
(-0.00455812 0.000141969 0)
(-0.00500855 0.000133454 0)
(-0.00542781 0.000122913 0)
(-0.00580962 0.000110564 0)
(-0.00614837 9.66272e-05 0)
(-0.00643917 8.13174e-05 0)
(-0.00667785 6.48523e-05 0)
(-0.00686099 4.74516e-05 0)
(-0.00698588 2.93393e-05 0)
(-0.00705059 1.07455e-05 0)
(-0.00705399 -8.09293e-06 0)
(-0.00699572 -2.69298e-05 0)
(-0.00687629 -4.55109e-05 0)
(-0.00669703 -6.35727e-05 0)
(-0.00646018 -8.08439e-05 0)
(-0.00616885 -9.70454e-05 0)
(-0.00582708 -0.000111892 0)
(-0.00543981 -0.000125097 0)
(-0.00501291 -0.000136369 0)
(-0.00455313 -0.000145425 0)
(-0.0040681 -0.000151985 0)
(-0.00356629 -0.00015578 0)
(-0.00305691 -0.000156556 0)
(-0.00254988 -0.000154078 0)
(-0.0020557 -0.000148132 0)
(-0.00158534 -0.000138535 0)
(-0.00115006 -0.000125139 0)
(-0.000761212 -0.00010785 0)
(-0.000429925 -8.66652e-05 0)
(-0.0001666 -6.17673e-05 0)
(1.99062e-05 -3.37447e-05 0)
(0.000123657 -4.07886e-06 0)
(0.000144835 2.37779e-05 0)
(9.97792e-05 4.17567e-05 0)
(3.21137e-05 3.20463e-05 0)
(4.10621e-05 -9.91733e-05 0)
(9.38671e-05 -9.29646e-05 0)
(4.54373e-05 1.44935e-05 0)
(-0.000168736 0.000161802 0)
(-0.000575606 0.000318247 0)
(-0.00117652 0.000467823 0)
(-0.0019591 0.000602206 0)
(-0.00290312 0.000717336 0)
(-0.00398391 0.000811474 0)
(-0.00517458 0.000884156 0)
(-0.00644744 0.000935659 0)
(-0.00777498 0.000966693 0)
(-0.0091304 0.000978235 0)
(-0.0104881 0.000971427 0)
(-0.0118237 0.00094751 0)
(-0.0131148 0.000907788 0)
(-0.0143403 0.000853602 0)
(-0.0154811 0.000786314 0)
(-0.01652 0.000707306 0)
(-0.0174416 0.000617972 0)
(-0.0182325 0.000519722 0)
(-0.0188812 0.000413988 0)
(-0.0193784 0.000302226 0)
(-0.0197167 0.000185925 0)
(-0.0198909 6.66136e-05 0)
(-0.0198981 -5.41401e-05 0)
(-0.0197374 -0.000174719 0)
(-0.0194103 -0.000293462 0)
(-0.0189207 -0.000408662 0)
(-0.0182748 -0.000518577 0)
(-0.0174814 -0.000621432 0)
(-0.0165515 -0.000715437 0)
(-0.0154989 -0.000798804 0)
(-0.0143393 -0.000869766 0)
(-0.0130913 -0.000926601 0)
(-0.0117754 -0.000967665 0)
(-0.0104143 -0.000991418 0)
(-0.00903249 -0.000996465 0)
(-0.00765629 -0.000981597 0)
(-0.00631311 -0.000945846 0)
(-0.00503126 -0.000888549 0)
(-0.00383929 -0.000809449 0)
(-0.00276527 -0.000708856 0)
(-0.00183568 -0.000587921 0)
(-0.00107395 -0.000449148 0)
(-0.000498133 -0.000297376 0)
(-0.000117623 -0.00014162 0)
(7.24102e-05 1.62825e-06 0)
(0.0001029 0.000101808 0)
(4.21404e-05 9.97907e-05 0)
(2.24812e-05 -0.000139237 0)
(-1.00555e-05 -4.57424e-05 0)
(-0.000234046 0.000239547 0)
(-0.000705789 0.000609095 0)
(-0.0014511 0.0010025 0)
(-0.0024715 0.00138343 0)
(-0.0037512 0.00173036 0)
(-0.00526312 0.00203118 0)
(-0.00697318 0.00227954 0)
(-0.00884329 0.00247271 0)
(-0.0108334 0.0026102 0)
(-0.012903 0.00269303 0)
(-0.0150122 0.00272315 0)
(-0.0171225 0.00270319 0)
(-0.0191969 0.0026362 0)
(-0.021201 0.00252551 0)
(-0.0231026 0.00237466 0)
(-0.0248724 0.00218734 0)
(-0.0264835 0.00196732 0)
(-0.0279123 0.00171846 0)
(-0.0291379 0.0014447 0)
(-0.0301428 0.00115007 0)
(-0.0309123 0.000838663 0)
(-0.0314352 0.000514686 0)
(-0.0317035 0.000182447 0)
(-0.0317126 -0.000153633 0)
(-0.0314615 -0.000489014 0)
(-0.0309527 -0.000819044 0)
(-0.0301922 -0.00113896 0)
(-0.0291899 -0.00144393 0)
(-0.0279594 -0.00172904 0)
(-0.0265179 -0.00198939 0)
(-0.0248865 -0.00222008 0)
(-0.0230899 -0.00241632 0)
(-0.0211561 -0.00257349 0)
(-0.0191169 -0.00268722 0)
(-0.0170066 -0.0027535 0)
(-0.0148626 -0.00276877 0)
(-0.0127244 -0.00273009 0)
(-0.010633 -0.0026353 0)
(-0.00863049 -0.00248323 0)
(-0.00675877 -0.00227401 0)
(-0.00505837 -0.00200958 0)
(-0.00356687 -0.00169435 0)
(-0.00231666 -0.00133648 0)
(-0.00133195 -0.000949837 0)
(-0.000624668 -0.00055746 0)
(-0.00018875 -0.000196592 0)
(7.07668e-06 7.27573e-05 0)
(2.53489e-05 0.000146437 0)
(-4.90643e-06 -0.000112243 0)
(-0.000153842 0.000164499 0)
(-0.000599964 0.000710131 0)
(-0.00137302 0.00137965 0)
(-0.0024877 0.00208497 0)
(-0.00394138 0.00276874 0)
(-0.00571341 0.00339436 0)
(-0.00777045 0.00393955 0)
(-0.0100709 0.00439158 0)
(-0.0125679 0.00474404 0)
(-0.0152117 0.00499484 0)
(-0.0179517 0.00514482 0)
(-0.0207374 0.00519684 0)
(-0.0235196 0.00515518 0)
(-0.0262513 0.0050251 0)
(-0.0288879 0.00481256 0)
(-0.031388 0.00452402 0)
(-0.0337134 0.00416627 0)
(-0.0358293 0.0037464 0)
(-0.037705 0.00327169 0)
(-0.0393133 0.00274964 0)
(-0.0406313 0.0021879 0)
(-0.04164 0.00159433 0)
(-0.0423248 0.000976966 0)
(-0.0426753 0.000344057 0)
(-0.0426857 -0.000295943 0)
(-0.0423548 -0.00093437 0)
(-0.0416858 -0.00156236 0)
(-0.040687 -0.00217087 0)
(-0.0393711 -0.00275072 0)
(-0.0377559 -0.00329266 0)
(-0.0358641 -0.00378745 0)
(-0.0337229 -0.00422592 0)
(-0.0313643 -0.00459916 0)
(-0.0288249 -0.0048986 0)
(-0.0261453 -0.00511622 0)
(-0.0233699 -0.00524474 0)
(-0.0205464 -0.00527784 0)
(-0.0177252 -0.00521047 0)
(-0.0149585 -0.00503915 0)
(-0.0122993 -0.00476244 0)
(-0.00979993 -0.00438149 0)
(-0.00751091 -0.00390094 0)
(-0.00547851 -0.00333009 0)
(-0.00374246 -0.00268476 0)
(-0.00233283 -0.00199023 0)
(-0.0012658 -0.00128563 0)
(-0.000538633 -0.000629862 0)
(-0.00012976 -0.000110786 0)
(-5.95605e-07 0.000130209 0)
(-3.36834e-05 -3.30974e-06 0)
(-0.000309973 0.000567724 0)
(-0.00100007 0.00145796 0)
(-0.00209754 0.002497 0)
(-0.00359938 0.00357456 0)
(-0.00549491 0.00461475 0)
(-0.00775648 0.00556649 0)
(-0.0103438 0.00639698 0)
(-0.0132081 0.0070863 0)
(-0.0162951 0.00762363 0)
(-0.0195469 0.00800463 0)
(-0.0229045 0.00822954 0)
(-0.0263087 0.00830197 0)
(-0.0297018 0.00822789 0)
(-0.033028 0.00801499 0)
(-0.0362346 0.00767223 0)
(-0.0392724 0.00720948 0)
(-0.0420956 0.00663729 0)
(-0.0446631 0.00596671 0)
(-0.0469379 0.00520924 0)
(-0.0488876 0.00437671 0)
(-0.0504846 0.0034813 0)
(-0.0517064 0.00253549 0)
(-0.0525354 0.00155209 0)
(-0.0529593 0.00054422 0)
(-0.0529713 -0.000474653 0)
(-0.0525697 -0.00149076 0)
(-0.0517588 -0.00249003 0)
(-0.0505484 -0.00345814 0)
(-0.0489538 -0.0043806 0)
(-0.0469965 -0.00524281 0)
(-0.0447034 -0.00603024 0)
(-0.0421072 -0.00672855 0)
(-0.0392461 -0.00732381 0)
(-0.0361634 -0.00780275 0)
(-0.0329074 -0.00815299 0)
(-0.0295307 -0.00836342 0)
(-0.0260898 -0.00842456 0)
(-0.0226441 -0.00832901 0)
(-0.0192548 -0.00807196 0)
(-0.0159839 -0.00765195 0)
(-0.0128928 -0.00707167 0)
(-0.0100401 -0.00633919 0)
(-0.00747986 -0.00546963 0)
(-0.00525886 -0.00448744 0)
(-0.00341391 -0.00342986 0)
(-0.00196771 -0.00235176 0)
(-0.000924829 -0.00133159 0)
(-0.000279951 -0.000480091 0)
(-2.81772e-05 3.54327e-05 0)
(-6.11425e-05 0.000188432 0)
(-0.000465667 0.00117259 0)
(-0.00140628 0.00249679 0)
(-0.00283705 0.00397561 0)
(-0.00473362 0.00548251 0)
(-0.00707431 0.00692651 0)
(-0.00982232 0.00824386 0)
(-0.0129293 0.0093919 0)
(-0.016339 0.0103436 0)
(-0.0199899 0.0110836 0)
(-0.0238169 0.011605 0)
(-0.0277536 0.0119073 0)
(-0.0317335 0.0119948 0)
(-0.0356914 0.0118751 0)
(-0.0395647 0.0115585 0)
(-0.0432935 0.0110575 0)
(-0.046822 0.0103855 0)
(-0.0500986 0.00955749 0)
(-0.0530762 0.00858904 0)
(-0.0557128 0.00749645 0)
(-0.0579716 0.00629662 0)
(-0.0598212 0.00500694 0)
(-0.061236 0.00364531 0)
(-0.062196 0.00223006 0)
(-0.0626871 0.000780032 0)
(-0.0627016 -0.000685501 0)
(-0.0622377 -0.00214682 0)
(-0.0613002 -0.00358381 0)
(-0.0599003 -0.00497602 0)
(-0.0580555 -0.00630278 0)
(-0.0557901 -0.00754335 0)
(-0.0531349 -0.00867708 0)
(-0.0501268 -0.00968368 0)
(-0.0468091 -0.0105435 0)
(-0.0432311 -0.0112379 0)
(-0.0394472 -0.0117495 0)
(-0.0355172 -0.0120629 0)
(-0.0315047 -0.0121652 0)
(-0.0274766 -0.0120463 0)
(-0.0235021 -0.0117001 0)
(-0.0196509 -0.0111252 0)
(-0.0159923 -0.010326 0)
(-0.0125924 -0.00931453 0)
(-0.00951281 -0.00811188 0)
(-0.00680787 -0.00675127 0)
(-0.00452236 -0.00528146 0)
(-0.00268776 -0.00377158 0)
(-0.00131892 -0.00231657 0)
(-0.000430434 -0.00104464 0)
(-5.45868e-05 -0.000139211 0)
(-8.64998e-05 0.000459712 0)
(-0.000615518 0.001978 0)
(-0.00180461 0.00382874 0)
(-0.00356864 0.0058191 0)
(-0.00586043 0.00781154 0)
(-0.00864533 0.00970366 0)
(-0.0118757 0.0114214 0)
(-0.0154939 0.0129136 0)
(-0.0194356 0.0141468 0)
(-0.0236318 0.0151014 0)
(-0.0280105 0.0157682 0)
(-0.0324985 0.0161459 0)
(-0.0370227 0.0162396 0)
(-0.0415117 0.0160588 0)
(-0.0458964 0.0156168 0)
(-0.0501114 0.0149293 0)
(-0.0540952 0.0140142 0)
(-0.0577909 0.0128911 0)
(-0.0611468 0.0115806 0)
(-0.0641168 0.0101044 0)
(-0.0666602 0.00848501 0)
(-0.0687424 0.00674561 0)
(-0.0703352 0.00491014 0)
(-0.0714165 0.00300316 0)
(-0.0719709 0.00104986 0)
(-0.0719897 -0.000923975 0)
(-0.071471 -0.00289198 0)
(-0.07042 -0.0048273 0)
(-0.0688489 -0.00670264 0)
(-0.066777 -0.00849047 0)
(-0.064231 -0.0101632 0)
(-0.0612444 -0.0116933 0)
(-0.0578581 -0.013054 0)
(-0.0541194 -0.0142192 0)
(-0.0500825 -0.0151643 0)
(-0.0458072 -0.0158665 0)
(-0.0413591 -0.0163057 0)
(-0.0368079 -0.016465 0)
(-0.0322274 -0.0163315 0)
(-0.0276935 -0.0158975 0)
(-0.0232833 -0.0151616 0)
(-0.019073 -0.0141301 0)
(-0.0151366 -0.0128186 0)
(-0.0115434 -0.0112541 0)
(-0.00835598 -0.00947803 0)
(-0.00562855 -0.00754964 0)
(-0.00340311 -0.00555028 0)
(-0.00170679 -0.00358815 0)
(-0.000575662 -0.00180416 0)
(-7.89809e-05 -0.000390793 0)
(-0.000109768 0.000806181 0)
(-0.000757919 0.00297842 0)
(-0.00218937 0.00544969 0)
(-0.00428175 0.00802466 0)
(-0.00696495 0.010559 0)
(-0.0101903 0.0129423 0)
(-0.0138981 0.0150927 0)
(-0.0180204 0.0169521 0)
(-0.0224839 0.0184819 0)
(-0.027212 0.019659 0)
(-0.0321255 0.0204722 0)
(-0.0371448 0.02092 0)
(-0.0421906 0.0210084 0)
(-0.0471857 0.0207491 0)
(-0.0520557 0.0201586 0)
(-0.05673 0.0192565 0)
(-0.0611424 0.0180653 0)
(-0.0652316 0.0166095 0)
(-0.0689421 0.0149152 0)
(-0.0722239 0.01301 0)
(-0.0750334 0.0109225 0)
(-0.0773335 0.00868214 0)
(-0.0790934 0.00631952 0)
(-0.0802896 0.00386588 0)
(-0.0809052 0.0013533 0)
(-0.0809309 -0.00118535 0)
(-0.0803644 -0.00371651 0)
(-0.0792112 -0.00620598 0)
(-0.0774843 -0.00861909 0)
(-0.0752043 -0.0109208 0)
(-0.0723996 -0.0130761 0)
(-0.0691063 -0.0150502 0)
(-0.065368 -0.0168089 0)
(-0.0612357 -0.0183194 0)
(-0.0567674 -0.0195504 0)
(-0.0520276 -0.0204733 0)
(-0.0470868 -0.0210627 0)
(-0.0420205 -0.0212973 0)
(-0.0369081 -0.0211612 0)
(-0.0318322 -0.0206447 0)
(-0.0268766 -0.0197461 0)
(-0.0221248 -0.0184731 0)
(-0.0176585 -0.0168445 0)
(-0.0135553 -0.0148927 0)
(-0.00988712 -0.0126666 0)
(-0.00671864 -0.0102341 0)
(-0.00410373 -0.00768694 0)
(-0.00208296 -0.00514362 0)
(-0.000714028 -0.00275402 0)
(-0.000101348 -0.000715228 0)
(-0.000131251 0.00122351 0)
(-0.000893078 0.00416681 0)
(-0.00255943 0.00735276 0)
(-0.00497316 0.0105864 0)
(-0.00804187 0.0137199 0)
(-0.0117024 0.0166374 0)
(-0.0158823 0.0192516 0)
(-0.0205023 0.0214996 0)
(-0.0254798 0.0233387 0)
(-0.0307299 0.0247434 0)
(-0.0361661 0.0257014 0)
(-0.0417022 0.0262114 0)
(-0.0472532 0.0262809 0)
(-0.0527364 0.0259243 0)
(-0.0580724 0.0251614 0)
(-0.0631862 0.0240162 0)
(-0.0680073 0.0225162 0)
(-0.072471 0.0206911 0)
(-0.0765182 0.0185732 0)
(-0.080096 0.0161961 0)
(-0.0831582 0.0135948 0)
(-0.0856654 0.0108058 0)
(-0.0875851 0.00786638 0)
(-0.0888921 0.00481505 0)
(-0.0895685 0.00169123 0)
(-0.0896043 -0.00146473 0)
(-0.0889968 -0.00461162 0)
(-0.0877516 -0.00770745 0)
(-0.0858821 -0.0107097 0)
(-0.0834099 -0.0135753 0)
(-0.0803646 -0.0162613 0)
(-0.0767843 -0.0187251 0)
(-0.0727148 -0.0209249 0)
(-0.0682099 -0.0228201 0)
(-0.0633311 -0.0243727 0)
(-0.0581466 -0.0255475 0)
(-0.0527315 -0.0263133 0)
(-0.0471662 -0.0266441 0)
(-0.0415358 -0.0265201 0)
(-0.0359289 -0.0259295 0)
(-0.0304362 -0.0248695 0)
(-0.0251485 -0.0233486 0)
(-0.0201557 -0.0213883 0)
(-0.0155445 -0.0190256 0)
(-0.0113968 -0.0163152 0)
(-0.00778892 -0.0133328 0)
(-0.00478737 -0.0101781 0)
(-0.00244674 -0.00697783 0)
(-0.000845879 -0.00388818 0)
(-0.000122004 -0.00110849 0)
(-0.000151321 0.0017079 0)
(-0.001022 0.00553616 0)
(-0.00291602 0.00953036 0)
(-0.00564381 0.0134974 0)
(-0.00909159 0.017288 0)
(-0.0131817 0.0207834 0)
(-0.0178284 0.0238927 0)
(-0.0229407 0.0265497 0)
(-0.028426 0.0287097 0)
(-0.0341907 0.0303455 0)
(-0.0401407 0.0314448 0)
(-0.0461833 0.0320073 0)
(-0.0522275 0.0320428 0)
(-0.0581855 0.0315687 0)
(-0.0639734 0.0306087 0)
(-0.069512 0.0291917 0)
(-0.0747274 0.0273504 0)
(-0.0795513 0.0251205 0)
(-0.083922 0.0225404 0)
(-0.0877841 0.0196503 0)
(-0.0910893 0.016492 0)
(-0.0937962 0.0131092 0)
(-0.0958708 0.00954631 0)
(-0.0972866 0.00584943 0)
(-0.0980249 0.0020656 0)
(-0.0980746 -0.00175699 0)
(-0.0974329 -0.00556913 0)
(-0.0961051 -0.00932071 0)
(-0.0941048 -0.0129609 0)
(-0.0914541 -0.0164384 0)
(-0.0881836 -0.0197018 0)
(-0.0843325 -0.0227002 0)
(-0.0799485 -0.0253835 0)
(-0.0750878 -0.0277033 0)
(-0.0698143 -0.029614 0)
(-0.0642 -0.0310732 0)
(-0.0583236 -0.0320435 0)
(-0.0522704 -0.0324934 0)
(-0.0461307 -0.0323988 0)
(-0.0399993 -0.0317447 0)
(-0.0339737 -0.0305268 0)
(-0.0281525 -0.0287538 0)
(-0.0226341 -0.0264487 0)
(-0.017515 -0.0236518 0)
(-0.0128882 -0.0204228 0)
(-0.0088419 -0.0168433 0)
(-0.00545627 -0.0130199 0)
(-0.00280006 -0.00908546 0)
(-0.000972469 -0.00520098 0)
(-0.00014136 -0.00156718 0)
(-0.000170343 0.00225632 0)
(-0.00114601 0.00708041 0)
(-0.0032615 0.0119755 0)
(-0.00629685 0.016751 0)
(-0.0101178 0.0212575 0)
(-0.0146322 0.025375 0)
(-0.019741 0.0290108 0)
(-0.0253412 0.0320973 0)
(-0.0313295 0.0345889 0)
(-0.0376031 0.0364583 0)
(-0.0440605 0.0376942 0)
(-0.0506018 0.0382984 0)
(-0.0571304 0.0382834 0)
(-0.0635534 0.0376705 0)
(-0.0697826 0.0364882 0)
(-0.075735 0.0347704 0)
(-0.0813333 0.0325557 0)
(-0.0865068 0.029886 0)
(-0.0911911 0.0268062 0)
(-0.0953289 0.0233636 0)
(-0.09887 0.019607 0)
(-0.101772 0.0155874 0)
(-0.103998 0.0113569 0)
(-0.105522 0.00696924 0)
(-0.106325 0.0024793 0)
(-0.106393 -0.00205662 0)
(-0.105724 -0.00658109 0)
(-0.104322 -0.0110356 0)
(-0.102202 -0.0153607 0)
(-0.0993856 -0.0194966 0)
(-0.0959033 -0.023383 0)
(-0.0917957 -0.0269603 0)
(-0.0871115 -0.0301698 0)
(-0.0819085 -0.0329546 0)
(-0.0762533 -0.0352608 0)
(-0.0702204 -0.0370385 0)
(-0.0638924 -0.0382433 0)
(-0.0573588 -0.0388373 0)
(-0.0507152 -0.0387915 0)
(-0.0440625 -0.0380868 0)
(-0.0375051 -0.0367166 0)
(-0.03115 -0.0346884 0)
(-0.0251048 -0.0320259 0)
(-0.0194761 -0.0287717 0)
(-0.0143687 -0.0249891 0)
(-0.00988377 -0.0207645 0)
(-0.00611524 -0.0162095 0)
(-0.00314615 -0.0114624 0)
(-0.00109543 -0.00668804 0)
(-0.000159835 -0.00208881 0)
(-0.000188644 0.0028665 0)
(-0.00126645 0.00879476 0)
(-0.0035987 0.0146825 0)
(-0.0069365 0.0203415 0)
(-0.0111258 0.0256232 0)
(-0.0160604 0.0304075 0)
(-0.0216276 0.0346017 0)
(-0.0277119 0.0381382 0)
(-0.0341994 0.0409718 0)
(-0.0409778 0.0430767 0)
(-0.0479374 0.0444436 0)
(-0.0549716 0.0450775 0)
(-0.0619777 0.0449946 0)
(-0.068858 0.0442211 0)
(-0.07552 0.0427904 0)
(-0.0818773 0.0407426 0)
(-0.0878498 0.0381224 0)
(-0.0933643 0.0349785 0)
(-0.0983544 0.0313627 0)
(-0.102761 0.0273293 0)
(-0.106533 0.0229348 0)
(-0.109626 0.0182375 0)
(-0.112003 0.0132974 0)
(-0.113636 0.00817587 0)
(-0.114505 0.00293604 0)
(-0.114597 -0.00235768 0)
(-0.113908 -0.00763946 0)
(-0.112442 -0.0128422 0)
(-0.110213 -0.0178978 0)
(-0.107242 -0.0227374 0)
(-0.103561 -0.0272918 0)
(-0.0992096 -0.0314922 0)
(-0.0942381 -0.0352708 0)
(-0.0887052 -0.0385617 0)
(-0.0826791 -0.0413023 0)
(-0.0762372 -0.0434343 0)
(-0.069465 -0.0449054 0)
(-0.0624563 -0.0456709 0)
(-0.055312 -0.0456954 0)
(-0.0481389 -0.044955 0)
(-0.0410489 -0.0434396 0)
(-0.0341575 -0.0411544 0)
(-0.027582 -0.0381227 0)
(-0.0214401 -0.034388 0)
(-0.0158487 -0.030016 0)
(-0.0109228 -0.0250966 0)
(-0.00677037 -0.0197459 0)
(-0.00348888 -0.0141063 0)
(-0.00121653 -0.00834678 0)
(-0.000177824 -0.00267185 0)
(-0.000206512 0.00353692 0)
(-0.00138465 0.0106759 0)
(-0.00393056 0.0176472 0)
(-0.00756736 0.0242648 0)
(-0.0121218 0.0303812 0)
(-0.0174736 0.0358777 0)
(-0.0234965 0.0406624 0)
(-0.0300624 0.0446692 0)
(-0.0370462 0.047855 0)
(-0.044326 0.0501965 0)
(-0.0517837 0.0516881 0)
(-0.0593056 0.0523388 0)
(-0.0667833 0.0521699 0)
(-0.074114 0.051213 0)
(-0.0812014 0.0495077 0)
(-0.0879559 0.0471004 0)
(-0.0942947 0.0440428 0)
(-0.100143 0.0403907 0)
(-0.105432 0.0362032 0)
(-0.110102 0.0315422 0)
(-0.1141 0.0264716 0)
(-0.117381 0.0210575 0)
(-0.119908 0.0153677 0)
(-0.121652 0.00947153 0)
(-0.122591 0.00344015 0)
(-0.122712 -0.00265374 0)
(-0.122011 -0.00873589 0)
(-0.12049 -0.0147306 0)
(-0.118163 -0.0205608 0)
(-0.11505 -0.0261485 0)
(-0.111183 -0.0314154 0)
(-0.106601 -0.0362832 0)
(-0.101355 -0.0406744 0)
(-0.0955038 -0.0445137 0)
(-0.0891175 -0.047729 0)
(-0.0822752 -0.0502529 0)
(-0.0750656 -0.0520243 0)
(-0.0675863 -0.0529906 0)
(-0.0599431 -0.0531092 0)
(-0.0522493 -0.0523502 0)
(-0.0446244 -0.0506983 0)
(-0.0371925 -0.0481556 0)
(-0.0300815 -0.0447435 0)
(-0.0234207 -0.0405051 0)
(-0.0173399 -0.0355074 0)
(-0.0119682 -0.0298427 0)
(-0.00742832 -0.0236306 0)
(-0.00383232 -0.0170176 0)
(-0.00133749 -0.0101766 0)
(-0.000195685 -0.00331572 0)
(-0.00022419 0.00426673 0)
(-0.00150182 0.0127217 0)
(-0.00425988 0.0208671 0)
(-0.00819401 0.0285183 0)
(-0.013112 0.0355293 0)
(-0.0188795 0.0417833 0)
(-0.0253565 0.0471906 0)
(-0.0324022 0.051688 0)
(-0.0398801 0.0552355 0)
(-0.0476583 0.0578143 0)
(-0.0556102 0.0594234 0)
(-0.063615 0.0600772 0)
(-0.0715584 0.0598032 0)
(-0.0793328 0.0586394 0)
(-0.0868383 0.0566325 0)
(-0.093982 0.0538361 0)
(-0.100679 0.0503094 0)
(-0.106853 0.0461156 0)
(-0.112434 0.0413218 0)
(-0.117362 0.0359974 0)
(-0.121582 0.0302142 0)
(-0.125049 0.024046 0)
(-0.127725 0.0175685 0)
(-0.129581 0.0108589 0)
(-0.130595 0.00399652 0)
(-0.130751 -0.00293785 0)
(-0.130046 -0.00986153 0)
(-0.12848 -0.0166901 0)
(-0.126067 -0.0233378 0)
(-0.122825 -0.0297173 0)
(-0.118785 -0.0357408 0)
(-0.113987 -0.0413202 0)
(-0.10848 -0.0463681 0)
(-0.102323 -0.0507991 0)
(-0.0955878 -0.0545311 0)
(-0.0883545 -0.0574865 0)
(-0.0807145 -0.0595946 0)
(-0.072769 -0.0607936 0)
(-0.0646289 -0.0610326 0)
(-0.0564136 -0.060274 0)
(-0.0482505 -0.0584966 0)
(-0.040273 -0.0556975 0)
(-0.0326198 -0.0518947 0)
(-0.0254324 -0.0471298 0)
(-0.0188544 -0.0414696 0)
(-0.0130295 -0.0350082 0)
(-0.00809592 -0.0278678 0)
(-0.00418051 -0.0201988 0)
(-0.00146001 -0.0121788 0)
(-0.000213745 -0.00402075 0)
(-0.000241891 0.00505569 0)
(-0.00161904 0.0149319 0)
(-0.00458929 0.0243416 0)
(-0.00882081 0.0331012 0)
(-0.0141024 0.0410667 0)
(-0.0202855 0.0481234 0)
(-0.0272162 0.0541852 0)
(-0.0347407 0.0591928 0)
(-0.0427107 0.0631111 0)
(-0.0509843 0.0659268 0)
(-0.0594263 0.067645 0)
(-0.0679086 0.0682872 0)
(-0.0763111 0.0678879 0)
(-0.0845216 0.066493 0)
(-0.0924366 0.064157 0)
(-0.0999607 0.0609416 0)
(-0.107007 0.056914 0)
(-0.113498 0.0521458 0)
(-0.119364 0.0467118 0)
(-0.124542 0.0406896 0)
(-0.128979 0.0341589 0)
(-0.132629 0.0272013 0)
(-0.135454 0.0199003 0)
(-0.137424 0.0123409 0)
(-0.138515 0.00461037 0)
(-0.138714 -0.0032025 0)
(-0.138013 -0.0110068 0)
(-0.136414 -0.0187095 0)
(-0.133927 -0.026216 0)
(-0.130571 -0.0334299 0)
(-0.126374 -0.0402535 0)
(-0.121375 -0.0465889 0)
(-0.115622 -0.0523383 0)
(-0.109174 -0.0574056 0)
(-0.102103 -0.0616977 0)
(-0.0944893 -0.0651264 0)
(-0.0864273 -0.0676101 0)
(-0.0780214 -0.0690765 0)
(-0.0693869 -0.0694648 0)
(-0.0606498 -0.0687288 0)
(-0.0519452 -0.0668392 0)
(-0.0434162 -0.0637866 0)
(-0.0352128 -0.0595843 0)
(-0.0274896 -0.0542708 0)
(-0.0204043 -0.0479115 0)
(-0.0141164 -0.0406012 0)
(-0.00877984 -0.0324644 0)
(-0.00453738 -0.0236554 0)
(-0.00158567 -0.0143568 0)
(-0.000232302 -0.00478815 0)
(-0.000259798 0.00590412 0)
(-0.00173731 0.0173068 0)
(-0.0049212 0.0280714 0)
(-0.00945181 0.0380145 0)
(-0.0150986 0.046994 0)
(-0.0216985 0.0548984 0)
(-0.0290834 0.0616459 0)
(-0.0370861 0.0671824 0)
(-0.0455464 0.0714793 0)
(-0.0543121 0.0745301 0)
(-0.0632391 0.0763478 0)
(-0.0721923 0.0769621 0)
(-0.0810457 0.0764163 0)
(-0.0896829 0.074765 0)
(-0.0979969 0.0720717 0)
(-0.105891 0.0684071 0)
(-0.113276 0.0638472 0)
(-0.120073 0.0584722 0)
(-0.126213 0.0523654 0)
(-0.131633 0.0456125 0)
(-0.136281 0.0383013 0)
(-0.140109 0.0305211 0)
(-0.143081 0.0223632 0)
(-0.145165 0.0139203 0)
(-0.146339 0.00528707 0)
(-0.146587 -0.00343972 0)
(-0.1459 -0.0121612 0)
(-0.14428 -0.0207761 0)
(-0.141734 -0.029181 0)
(-0.13828 -0.0372704 0)
(-0.133943 -0.0449371 0)
(-0.128761 -0.0520727 0)
(-0.12278 -0.0585688 0)
(-0.116059 -0.0643182 0)
(-0.108667 -0.0692159 0)
(-0.100687 -0.0731619 0)
(-0.0922144 -0.0760628 0)
(-0.0833558 -0.0778343 0)
(-0.0742314 -0.0784044 0)
(-0.0649732 -0.0777161 0)
(-0.0557244 -0.0757305 0)
(-0.046638 -0.0724301 0)
(-0.0378758 -0.0678216 0)
(-0.0296058 -0.0619387 0)
(-0.0220012 -0.0548443 0)
(-0.0152378 -0.0466327 0)
(-0.00948655 -0.0374303 0)
(-0.00490668 -0.0273952 0)
(-0.00171598 -0.0167159 0)
(-0.000251628 -0.00561991 0)
(-0.000278072 0.00681279 0)
(-0.00185749 0.0198484 0)
(-0.00525782 0.0320588 0)
(-0.0100907 0.0432605 0)
(-0.0161058 0.0533134 0)
(-0.0231249 0.0621097 0)
(-0.0309653 0.069573 0)
(-0.0394458 0.0756558 0)
(-0.0483942 0.0803372 0)
(-0.0576476 0.0836196 0)
(-0.0670532 0.0855253 0)
(-0.0764686 0.0860938 0)
(-0.0857624 0.0853786 0)
(-0.094814 0.0834443 0)
(-0.103514 0.0803647 0)
(-0.111763 0.0762203 0)
(-0.119472 0.0710967 0)
(-0.126562 0.0650833 0)
(-0.132964 0.0582721 0)
(-0.138615 0.0507574 0)
(-0.143464 0.0426349 0)
(-0.147465 0.0340017 0)
(-0.15058 0.0249564 0)
(-0.152779 0.0155991 0)
(-0.154038 0.00603197 0)
(-0.154342 -0.00364103 0)
(-0.15368 -0.0133133 0)
(-0.152052 -0.0228758 0)
(-0.149464 -0.0322165 0)
(-0.145929 -0.041221 0)
(-0.141473 -0.0497724 0)
(-0.13613 -0.057752 0)
(-0.129943 -0.0650405 0)
(-0.122969 -0.0715185 0)
(-0.115277 -0.0770691 0)
(-0.106949 -0.0815791 0)
(-0.0980795 -0.0849417 0)
(-0.0887795 -0.0870597 0)
(-0.0791723 -0.0878477 0)
(-0.069396 -0.0872362 0)
(-0.0596017 -0.0851747 0)
(-0.0499525 -0.0816356 0)
(-0.0406225 -0.0766168 0)
(-0.031794 -0.0701457 0)
(-0.0236563 -0.0622812 0)
(-0.0164026 -0.053116 0)
(-0.0102222 -0.0427778 0)
(-0.00529202 -0.0314285 0)
(-0.00185236 -0.0192631 0)
(-0.000271979 -0.0065188 0)
(-0.000296859 0.00778295 0)
(-0.00198043 0.0225596 0)
(-0.0056012 0.0363076 0)
(-0.0107411 0.0488431 0)
(-0.0171287 0.0600282 0)
(-0.0245704 0.0697595 0)
(-0.032868 0.077967 0)
(-0.0418259 0.0846114 0)
(-0.0512594 0.0896812 0)
(-0.0609947 0.0931892 0)
(-0.0708702 0.0951689 0)
(-0.0807365 0.0956714 0)
(-0.0904569 0.0947618 0)
(-0.0999072 0.0925165 0)
(-0.108975 0.0890206 0)
(-0.117562 0.0843653 0)
(-0.125576 0.0786468 0)
(-0.132942 0.0719641 0)
(-0.139588 0.0644186 0)
(-0.145456 0.0561129 0)
(-0.150494 0.0471509 0)
(-0.154658 0.0376371 0)
(-0.157911 0.0276774 0)
(-0.160224 0.0173788 0)
(-0.161571 0.00685008 0)
(-0.161937 -0.00379765 0)
(-0.161312 -0.0144508 0)
(-0.15969 -0.0249928 0)
(-0.157078 -0.0353038 0)
(-0.153485 -0.0452605 0)
(-0.148934 -0.0547367 0)
(-0.143454 -0.0636033 0)
(-0.137087 -0.0717296 0)
(-0.129887 -0.0789841 0)
(-0.121919 -0.0852364 0)
(-0.113265 -0.0903595 0)
(-0.104019 -0.0942321 0)
(-0.0942933 -0.0967417 0)
(-0.0842145 -0.0977881 0)
(-0.0739262 -0.0972871 0)
(-0.0635874 -0.0951744 0)
(-0.0533715 -0.0914097 0)
(-0.0434651 -0.0859804 0)
(-0.0340658 -0.0789053 0)
(-0.0253797 -0.0702375 0)
(-0.0176191 -0.060067 0)
(-0.0109927 -0.0485218 0)
(-0.00569681 -0.0357679 0)
(-0.00199616 -0.0220073 0)
(-0.000293601 -0.00748828 0)
(-0.000316297 0.00881623 0)
(-0.00210688 0.025444 0)
(-0.00595327 0.0408227 0)
(-0.0114061 0.0547675 0)
(-0.0181719 0.0671428 0)
(-0.0260403 0.0778507 0)
(-0.034797 0.0868287 0)
(-0.0442314 0.0940472 0)
(-0.0541456 0.0995061 0)
(-0.064355 0.103231 0)
(-0.0746889 0.105267 0)
(-0.0849911 0.105681 0)
(-0.09512 0.104549 0)
(-0.104948 0.101963 0)
(-0.114363 0.0980191 0)
(-0.123262 0.0928214 0)
(-0.131559 0.0864769 0)
(-0.139176 0.0790951 0)
(-0.146047 0.0707869 0)
(-0.152112 0.0616637 0)
(-0.157323 0.0518369 0)
(-0.161638 0.0414188 0)
(-0.16502 0.0305216 0)
(-0.167442 0.0192589 0)
(-0.168879 0.00774582 0)
(-0.169314 -0.00390057 0)
(-0.168736 -0.0155602 0)
(-0.167138 -0.0271096 0)
(-0.164522 -0.0384216 0)
(-0.160896 -0.0493646 0)
(-0.156278 -0.0598033 0)
(-0.150692 -0.0695984 0)
(-0.144177 -0.0786075 0)
(-0.136782 -0.0866866 0)
(-0.12857 -0.0936913 0)
(-0.119618 -0.0994795 0)
(-0.110022 -0.103914 0)
(-0.0998913 -0.106865 0)
(-0.0893571 -0.108215 0)
(-0.0785674 -0.107864 0)
(-0.0676884 -0.10573 0)
(-0.0569041 -0.101758 0)
(-0.046414 -0.0959229 0)
(-0.0364315 -0.0882316 0)
(-0.0271811 -0.0787299 0)
(-0.0188951 -0.0675033 0)
(-0.0118038 -0.0546795 0)
(-0.00612438 -0.0404282 0)
(-0.00214873 -0.024959 0)
(-0.00031673 -0.00853254 0)
(-0.000336522 0.00991464 0)
(-0.00223762 0.0285065 0)
(-0.00631597 0.0456104 0)
(-0.0120889 0.0610399 0)
(-0.0192396 0.0746625 0)
(-0.0275395 0.0863865 0)
(-0.0367571 0.0961583 0)
(-0.0466661 0.10396 0)
(-0.0570549 0.109805 0)
(-0.0677276 0.113733 0)
(-0.0785045 0.115805 0)
(-0.0892231 0.116103 0)
(-0.0997372 0.114719 0)
(-0.109917 0.111759 0)
(-0.119649 0.107335 0)
(-0.128832 0.101562 0)
(-0.137381 0.0945608 0)
(-0.145221 0.0864513 0)
(-0.152287 0.0773541 0)
(-0.158524 0.0673894 0)
(-0.163887 0.0566766 0)
(-0.168336 0.0453345 0)
(-0.171836 0.0334818 0)
(-0.174361 0.0212377 0)
(-0.175888 0.00872262 0)
(-0.176398 -0.00394079 0)
(-0.175879 -0.016627 0)
(-0.174322 -0.0292065 0)
(-0.171726 -0.0415455 0)
(-0.168096 -0.0535049 0)
(-0.163442 -0.0649407 0)
(-0.157787 -0.0757034 0)
(-0.151162 -0.0856394 0)
(-0.143611 -0.0945914 0)
(-0.135193 -0.1024 0)
(-0.12598 -0.108908 0)
(-0.116065 -0.113959 0)
(-0.105559 -0.117406 0)
(-0.0945925 -0.119112 0)
(-0.0833175 -0.118956 0)
(-0.0719075 -0.116838 0)
(-0.0605565 -0.112685 0)
(-0.0494775 -0.106453 0)
(-0.0389004 -0.0981389 0)
(-0.029069 -0.0877762 0)
(-0.020238 -0.0754447 0)
(-0.0126607 -0.0612705 0)
(-0.00657798 -0.0454263 0)
(-0.00231136 -0.0281301 0)
(-0.000341605 -0.0096564 0)
(-0.000357678 0.0110806 0)
(-0.00237347 0.0317528 0)
(-0.0066913 0.0506779 0)
(-0.012793 0.067668 0)
(-0.0203361 0.0825935 0)
(-0.0290728 0.0953703 0)
(-0.0387528 0.105956 0)
(-0.0491331 0.114345 0)
(-0.0599877 0.120568 0)
(-0.0711093 0.12468 0)
(-0.0823093 0.126763 0)
(-0.093419 0.126913 0)
(-0.104288 0.125243 0)
(-0.114787 0.121875 0)
(-0.1248 0.116934 0)
(-0.134229 0.110554 0)
(-0.142992 0.102865 0)
(-0.151017 0.0940006 0)
(-0.158244 0.0840906 0)
(-0.164622 0.0732642 0)
(-0.17011 0.0616481 0)
(-0.17467 0.0493677 0)
(-0.178272 0.0365471 0)
(-0.180891 0.0233104 0)
(-0.182504 0.00978253 0)
(-0.183094 -0.00390956 0)
(-0.182646 -0.0176358 0)
(-0.18115 -0.0312618 0)
(-0.178601 -0.044648 0)
(-0.174997 -0.0576487 0)
(-0.170347 -0.0701118 0)
(-0.164664 -0.0818783 0)
(-0.157975 -0.0927832 0)
(-0.150315 -0.102656 0)
(-0.141737 -0.111322 0)
(-0.132309 -0.118607 0)
(-0.122119 -0.124335 0)
(-0.111274 -0.128338 0)
(-0.0999056 -0.130457 0)
(-0.0881687 -0.130549 0)
(-0.0762429 -0.128491 0)
(-0.0643316 -0.124189 0)
(-0.0526616 -0.11758 0)
(-0.04148 -0.108641 0)
(-0.0310516 -0.0973947 0)
(-0.0216548 -0.0839121 0)
(-0.0135689 -0.0683159 0)
(-0.00706085 -0.0507813 0)
(-0.00248538 -0.0315346 0)
(-0.000368472 -0.0108654 0)
(-0.000379925 0.012317 0)
(-0.0025153 0.0351896 0)
(-0.00708146 0.0560341 0)
(-0.0135218 0.0746602 0)
(-0.021466 0.0909425 0)
(-0.0306449 0.104805 0)
(-0.0407881 0.116219 0)
(-0.0516345 0.125195 0)
(-0.0629431 0.131781 0)
(-0.0744946 0.136054 0)
(-0.0860919 0.138115 0)
(-0.0975605 0.138082 0)
(-0.108748 0.136087 0)
(-0.119522 0.13227 0)
(-0.129771 0.126777 0)
(-0.1394 0.119754 0)
(-0.14833 0.111348 0)
(-0.156494 0.101703 0)
(-0.163839 0.0909595 0)
(-0.170319 0.0792551 0)
(-0.175896 0.0667238 0)
(-0.180539 0.0534967 0)
(-0.184222 0.0397026 0)
(-0.186921 0.0254696 0)
(-0.188616 0.0109258 0)
(-0.189289 -0.00379872 0)
(-0.188924 -0.0185706 0)
(-0.18751 -0.0332517 0)
(-0.185035 -0.0476981 0)
(-0.181496 -0.0617585 0)
(-0.176892 -0.0752736 0)
(-0.171231 -0.0880757 0)
(-0.16453 -0.0999888 0)
(-0.156818 -0.110829 0)
(-0.148138 -0.120406 0)
(-0.13855 -0.128526 0)
(-0.128137 -0.134995 0)
(-0.117001 -0.13962 0)
(-0.105272 -0.142218 0)
(-0.0931062 -0.142619 0)
(-0.0806872 -0.140676 0)
(-0.0682283 -0.136267 0)
(-0.0559697 -0.129306 0)
(-0.0441765 -0.11975 0)
(-0.0331358 -0.107604 0)
(-0.0231524 -0.0929279 0)
(-0.0145337 -0.0758391 0)
(-0.00757631 -0.0565141 0)
(-0.00267219 -0.0351876 0)
(-0.000397593 -0.0121658 0)
(-0.00040345 0.0136272 0)
(-0.00266417 0.038825 0)
(-0.00748899 0.061689 0)
(-0.0142794 0.0820266 0)
(-0.0226345 0.0997169 0)
(-0.0322613 0.114695 0)
(-0.0428673 0.126945 0)
(-0.054172 0.1365 0)
(-0.0659185 0.143428 0)
(-0.0778754 0.147829 0)
(-0.0898371 0.149829 0)
(-0.101624 0.149569 0)
(-0.113082 0.147205 0)
(-0.124081 0.142898 0)
(-0.13451 0.136812 0)
(-0.144281 0.129112 0)
(-0.15332 0.119959 0)
(-0.161568 0.10951 0)
(-0.168977 0.0979149 0)
(-0.17551 0.0853211 0)
(-0.181135 0.0718687 0)
(-0.185826 0.0576936 0)
(-0.189562 0.0429285 0)
(-0.192322 0.0277039 0)
(-0.19409 0.0121501 0)
(-0.194847 -0.00360107 0)
(-0.194578 -0.0194146 0)
(-0.193266 -0.0351504 0)
(-0.190899 -0.0506612 0)
(-0.187465 -0.0657917 0)
(-0.182957 -0.0803767 0)