/*--------------------------------*- C++ -*----------------------------------*\
| =========                 |                                                 |
| \\      /  F ield         | OpenFOAM: The Open Source CFD Toolbox           |
|  \\    /   O peration     | Version:  v2012                                 |
|   \\  /    A nd           | Website:  www.openfoam.com                      |
|    \\/     M anipulation  |                                                 |
\*---------------------------------------------------------------------------*/
FoamFile
{
    version     2.0;
    format      ascii;
    class       volVectorField;
    location    "0.35";
    object      U;
}
// * * * * * * * * * * * * * * * * * * * * * * * * * * * * * * * * * * * * * //

dimensions      [0 1 -1 0 0 0 0];


internalField   nonuniform List<vector> 
1250
(
(3.26613e-05 -3.28235e-05 0)
(9.87575e-05 -4.07271e-05 0)
(0.000137313 -2.09835e-05 0)
(0.000106241 7.85434e-06 0)
(-8.73576e-06 3.77361e-05 0)
(-0.000206061 6.53562e-05 0)
(-0.000478395 8.94028e-05 0)
(-0.000815913 0.000109463 0)
(-0.00120767 0.000125512 0)
(-0.0016424 0.000137689 0)
(-0.00210894 0.000146199 0)
(-0.0025965 0.000151274 0)
(-0.00309476 0.000153155 0)
(-0.00359404 0.000152082 0)
(-0.00408527 0.000148296 0)
(-0.00456004 0.000142029 0)
(-0.00501066 0.00013351 0)
(-0.0054301 0.000122964 0)
(-0.00581207 0.00011061 0)
(-0.00615096 9.66663e-05 0)
(-0.00644187 8.13496e-05 0)
(-0.00668065 6.4877e-05 0)
(-0.00686386 4.74684e-05 0)
(-0.00698879 2.93479e-05 0)
(-0.00705352 1.07456e-05 0)
(4.1073e-05 -9.9245e-05 0)
(9.39005e-05 -9.30354e-05 0)
(4.54659e-05 1.44739e-05 0)
(-0.000168782 0.00016185 0)
(-0.000575812 0.000318366 0)
(-0.00117697 0.00046801 0)
(-0.00195988 0.000602455 0)
(-0.00290431 0.000717638 0)
(-0.00398556 0.000811819 0)
(-0.00517674 0.000884535 0)
(-0.00645015 0.000936061 0)
(-0.00777827 0.000967109 0)
(-0.00913428 0.000978657 0)
(-0.0104925 0.000971845 0)
(-0.0118288 0.000947917 0)
(-0.0131204 0.000908177 0)
(-0.0143464 0.000853965 0)
(-0.0154878 0.000786646 0)
(-0.0165271 0.000707602 0)
(-0.0174491 0.000618226 0)
(-0.0182403 0.000519931 0)
(-0.0188892 0.000414147 0)
(-0.0193866 0.000302334 0)
(-0.019725 0.00018598 0)
(-0.0198993 6.66143e-05 0)
(2.24896e-05 -0.000139323 0)
(-1.00581e-05 -4.58045e-05 0)
(-0.000234133 0.000239606 0)
(-0.000706064 0.000609317 0)
(-0.00145168 0.0010029 0)
(-0.00247251 0.00138401 0)
(-0.00375276 0.00173109 0)
(-0.00526533 0.00203205 0)
(-0.00697613 0.00228052 0)
(-0.00884705 0.00247378 0)
(-0.010838 0.00261134 0)
(-0.0129085 0.0026942 0)
(-0.0150187 0.00272433 0)
(-0.0171298 0.00270436 0)
(-0.0192052 0.00263734 0)
(-0.0212102 0.0025266 0)
(-0.0231126 0.00237568 0)
(-0.0248831 0.00218827 0)
(-0.0264949 0.00196815 0)
(-0.0279243 0.00171917 0)
(-0.0291504 0.00144529 0)
(-0.0301557 0.00115052 0)
(-0.0309255 0.000838964 0)
(-0.0314486 0.000514838 0)
(-0.0317169 0.000182448 0)
(-4.9085e-06 -0.000112319 0)
(-0.000153905 0.000164518 0)
(-0.00060021 0.000710378 0)
(-0.00137359 0.00138019 0)
(-0.00248874 0.00208582 0)
(-0.00394303 0.0027699 0)
(-0.00571582 0.0033958 0)
(-0.00777375 0.00394124 0)
(-0.0100752 0.00439348 0)
(-0.0125733 0.0047461 0)
(-0.0152183 0.00499702 0)
(-0.0179594 0.00514706 0)
(-0.0207463 0.0051991 0)
(-0.0235298 0.00515742 0)
(-0.0262627 0.00502728 0)
(-0.0289004 0.00481464 0)
(-0.0314016 0.00452596 0)
(-0.0337279 0.00416804 0)
(-0.0358448 0.00374797 0)
(-0.0377212 0.00327304 0)
(-0.0393302 0.00275075 0)
(-0.0406487 0.00218875 0)
(-0.0416578 0.0015949 0)
(-0.0423428 0.000977253 0)
(-0.0426934 0.000344056 0)
(-3.3698e-05 -3.34141e-06 0)
(-0.000310105 0.000567909 0)
(-0.00100049 0.00145852 0)
(-0.00209843 0.00249801 0)
(-0.00360091 0.00357605 0)
(-0.00549725 0.0046167 0)
(-0.00775978 0.00556887 0)
(-0.0103482 0.00639973 0)
(-0.0132138 0.00708937 0)
(-0.0163021 0.00762694 0)
(-0.0195553 0.00800811 0)
(-0.0229144 0.00823313 0)
(-0.0263201 0.00830559 0)
(-0.0297146 0.00823147 0)
(-0.0330422 0.00801847 0)
(-0.0362502 0.00767555 0)
(-0.0392892 0.00721258 0)
(-0.0421137 0.00664011 0)
(-0.0446823 0.00596921 0)
(-0.046958 0.00521139 0)
(-0.0489085 0.00437847 0)
(-0.0505061 0.00348264 0)
(-0.0517283 0.00253639 0)
(-0.0525576 0.00155254 0)
(-0.0529816 0.000544215 0)
(-6.11695e-05 0.000188482 0)
(-0.000465868 0.00117304 0)
(-0.00140688 0.00249779 0)
(-0.00283826 0.00397725 0)
(-0.00473563 0.00548481 0)
(-0.00707731 0.00692945 0)
(-0.0098265 0.00824739 0)
(-0.0129348 0.00939594 0)
(-0.0163459 0.0103481 0)
(-0.0199984 0.0110884 0)
(-0.023827 0.0116101 0)
(-0.0277654 0.0119125 0)
(-0.031747 0.012 0)
(-0.0357067 0.0118802 0)
(-0.0395815 0.0115635 0)
(-0.0433119 0.0110622 0)
(-0.0468419 0.0103899 0)
(-0.0501198 0.00956154 0)
(-0.0530987 0.00859263 0)
(-0.0557363 0.00749953 0)
(-0.057996 0.00629914 0)
(-0.0598464 0.00500886 0)
(-0.0612617 0.0036466 0)
(-0.062222 0.00223071 0)
(-0.0627132 0.000780019 0)
(-8.65381e-05 0.00045988 0)
(-0.000615783 0.00197878 0)
(-0.00180537 0.00383031 0)
(-0.00357015 0.00582152 0)
(-0.00586289 0.00781483 0)
(-0.00864896 0.00970778 0)
(-0.0118807 0.0114263 0)
(-0.0155004 0.0129191 0)
(-0.0194437 0.0141529 0)
(-0.0236417 0.0151079 0)
(-0.0280222 0.015775 0)
(-0.0325121 0.0161529 0)
(-0.0370382 0.0162466 0)
(-0.0415291 0.0160657 0)
(-0.0459156 0.0156235 0)
(-0.0501324 0.0149356 0)
(-0.0541177 0.0140202 0)
(-0.057815 0.0128966 0)
(-0.0611723 0.0115854 0)
(-0.0641434 0.0101085 0)
(-0.0666878 0.00848837 0)
(-0.0687708 0.00674817 0)
(-0.0703641 0.00491186 0)
(-0.0714458 0.00300401 0)
(-0.0720003 0.00104983 0)
(-0.000109817 0.000806498 0)
(-0.000758241 0.00297963 0)
(-0.00219029 0.00545194 0)
(-0.00428353 0.008028 0)
(-0.00696783 0.0105635 0)
(-0.0101945 0.0129478 0)
(-0.0139038 0.0150991 0)
(-0.0180278 0.0169593 0)
(-0.0224931 0.0184898 0)
(-0.0272231 0.0196674 0)
(-0.0321387 0.0204809 0)
(-0.03716 0.0209289 0)
(-0.0422078 0.0210173 0)
(-0.047205 0.020758 0)
(-0.052077 0.0201672 0)
(-0.0567531 0.0192646 0)
(-0.0611672 0.0180729 0)
(-0.0652581 0.0166164 0)
(-0.06897 0.0149213 0)
(-0.0722531 0.0130152 0)
(-0.0750637 0.0109267 0)
(-0.0773646 0.0086854 0)
(-0.0791251 0.0063217 0)
(-0.0803216 0.00386695 0)
(-0.0809374 0.00135326 0)
(-0.000131307 0.001224 0)
(-0.000893449 0.00416851 0)
(-0.00256048 0.00735578 0)
(-0.00497518 0.0105908 0)
(-0.00804511 0.0137256 0)
(-0.0117071 0.0166444 0)
(-0.0158886 0.0192597 0)
(-0.0205105 0.0215086 0)
(-0.02549 0.0233486 0)
(-0.0307421 0.0247538 0)
(-0.0361804 0.0257122 0)
(-0.0417187 0.0262225 0)
(-0.0472719 0.026292 0)
(-0.0527572 0.0259352 0)
(-0.0580953 0.025172 0)
(-0.0632111 0.0240263 0)
(-0.0680341 0.0225255 0)
(-0.0724995 0.0206996 0)
(-0.0765482 0.0185807 0)
(-0.0801273 0.0162025 0)
(-0.0831907 0.0136001 0)
(-0.0856987 0.0108098 0)
(-0.087619 0.00786905 0)
(-0.0889264 0.00481636 0)
(-0.089603 0.00169117 0)
(-0.000151384 0.0017086 0)
(-0.00102242 0.00553842 0)
(-0.00291717 0.00953425 0)
(-0.00564602 0.013503 0)
(-0.00909512 0.0172951 0)
(-0.0131868 0.020792 0)
(-0.0178352 0.0239025 0)
(-0.0229495 0.0265607 0)
(-0.0284369 0.0287216 0)
(-0.0342037 0.0303581 0)
(-0.040156 0.0314578 0)
(-0.0462009 0.0320206 0)
(-0.0522473 0.0320561 0)
(-0.0582076 0.0315817 0)
(-0.0639977 0.0306213 0)
(-0.0695383 0.0292037 0)
(-0.0747556 0.0273615 0)
(-0.0795813 0.0251307 0)
(-0.0839536 0.0225494 0)
(-0.0878171 0.0196579 0)
(-0.0911234 0.0164983 0)
(-0.0938312 0.0131139 0)
(-0.0959064 0.00954949 0)
(-0.0973226 0.00585098 0)
(-0.098061 0.00206551 0)
(-0.000170411 0.00225723 0)
(-0.00114645 0.00708326 0)
(-0.00326273 0.0119803 0)
(-0.00629921 0.0167578 0)
(-0.0101215 0.0212661 0)
(-0.0146376 0.0253852 0)
(-0.0197483 0.0290225 0)
(-0.0253504 0.0321104 0)
(-0.0313409 0.034603 0)
(-0.0376168 0.0364732 0)
(-0.0440765 0.0377096 0)
(-0.0506201 0.038314 0)
(-0.0571511 0.038299 0)
(-0.0635764 0.0376858 0)
(-0.0698078 0.036503 0)
(-0.0757623 0.0347844 0)
(-0.0813626 0.0325687 0)
(-0.0865379 0.0298978 0)
(-0.0912238 0.0268167 0)
(-0.095363 0.0233725 0)
(-0.0989052 0.0196143 0)
(-0.101808 0.015593 0)
(-0.104035 0.0113606 0)
(-0.10556 0.00697104 0)
(-0.106362 0.00247918 0)
(-0.000188717 0.00286764 0)
(-0.00126692 0.00879824 0)
(-0.0036 0.0146883 0)
(-0.00693896 0.0203496 0)
(-0.0111297 0.0256333 0)
(-0.016066 0.0304196 0)
(-0.0216351 0.0346154 0)
(-0.0277215 0.0381534 0)
(-0.0342112 0.0409881 0)
(-0.0409919 0.0430939 0)
(-0.0479539 0.0444614 0)
(-0.0549904 0.0450955 0)
(-0.0619989 0.0450126 0)
(-0.0688815 0.0442386 0)
(-0.0755457 0.0428074 0)
(-0.0819051 0.0407587 0)
(-0.0878796 0.0381374 0)
(-0.0933959 0.0349921 0)
(-0.0983876 0.0313747 0)
(-0.102796 0.0273395 0)
(-0.106569 0.0229432 0)
(-0.109662 0.0182438 0)
(-0.11204 0.0133016 0)
(-0.113674 0.00817791 0)
(-0.114543 0.00293588 0)
(-0.000206586 0.0035383 0)
(-0.00138513 0.01068 0)
(-0.00393188 0.017654 0)
(-0.00756987 0.0242741 0)
(-0.0121258 0.030393 0)
(-0.0174793 0.0358915 0)
(-0.0235041 0.0406781 0)
(-0.0300721 0.0446865 0)
(-0.0370581 0.0478735 0)
(-0.0443402 0.050216 0)
(-0.0518003 0.0517082 0)
(-0.0593246 0.0523592 0)
(-0.0668046 0.0521902 0)
(-0.0741377 0.0512328 0)
(-0.0812273 0.0495268 0)
(-0.0879839 0.0471185 0)
(-0.0943247 0.0440596 0)
(-0.100174 0.040406 0)
(-0.105465 0.0362167 0)
(-0.110136 0.0315537 0)
(-0.114136 0.026481 0)
(-0.117418 0.0210646 0)
(-0.119945 0.0153724 0)
(-0.12169 0.00947381 0)
(-0.122629 0.00343997 0)
(-0.000224265 0.00426835 0)
(-0.0015023 0.0127265 0)
(-0.00426121 0.020875 0)
(-0.00819653 0.0285289 0)
(-0.013116 0.0355427 0)
(-0.0188852 0.0417989 0)
(-0.0253641 0.0472083 0)
(-0.0324119 0.0517074 0)
(-0.0398919 0.0552564 0)
(-0.0476724 0.0578362 0)
(-0.0556267 0.0594459 0)
(-0.0636338 0.0600999 0)
(-0.0715795 0.0598258 0)
(-0.0793563 0.0586615 0)
(-0.0868639 0.0566538 0)
(-0.0940097 0.0538562 0)
(-0.100709 0.050328 0)
(-0.106884 0.0461326 0)
(-0.112467 0.0413368 0)
(-0.117396 0.0360101 0)
(-0.121617 0.0302246 0)
(-0.125085 0.0240539 0)
(-0.127762 0.0175737 0)
(-0.129618 0.0108614 0)
(-0.130632 0.0039963 0)
(-0.000241965 0.00505755 0)
(-0.00161951 0.0149373 0)
(-0.00459059 0.0243504 0)
(-0.00882329 0.0331132 0)
(-0.0141063 0.0410816 0)
(-0.0202911 0.0481409 0)
(-0.0272237 0.0542049 0)
(-0.0347502 0.0592144 0)
(-0.0427223 0.0631342 0)
(-0.0509981 0.0659509 0)
(-0.0594424 0.0676698 0)
(-0.067927 0.0683122 0)
(-0.0763317 0.0679128 0)
(-0.0845445 0.0665173 0)
(-0.0924615 0.0641804 0)
(-0.0999877 0.0609637 0)
(-0.107036 0.0569345 0)
(-0.113529 0.0521644 0)
(-0.119396 0.0467282 0)
(-0.124575 0.0407036 0)
(-0.129013 0.0341703 0)
(-0.132664 0.0272099 0)
(-0.13549 0.019906 0)
(-0.13746 0.0123437 0)
(-0.138552 0.00461012 0)
(-0.000259869 0.00590622 0)
(-0.00173776 0.0173129 0)
(-0.00492246 0.0280812 0)
(-0.0094542 0.0380278 0)
(-0.0151024 0.0470104 0)
(-0.0217039 0.0549177 0)
(-0.0290906 0.0616675 0)
(-0.0370952 0.0672061 0)
(-0.0455576 0.0715045 0)
(-0.0543254 0.0745564 0)
(-0.0632546 0.0763748 0)
(-0.0722099 0.0769894 0)
(-0.0810655 0.0764434 0)
(-0.0897048 0.0747914 0)
(-0.0980208 0.0720971 0)
(-0.105916 0.0684311 0)
(-0.113303 0.0638694 0)
(-0.120102 0.0584923 0)
(-0.126244 0.0523832 0)
(-0.131665 0.0456277 0)
(-0.136314 0.0383136 0)
(-0.140143 0.0305305 0)
(-0.143115 0.0223694 0)
(-0.1452 0.0139233 0)
(-0.146374 0.0052868 0)
(-0.000278139 0.00681512 0)
(-0.00185792 0.0198551 0)
(-0.00525901 0.0320696 0)
(-0.010093 0.043275 0)
(-0.0161093 0.0533313 0)
(-0.02313 0.0621306 0)
(-0.0309721 0.0695964 0)
(-0.0394544 0.0756813 0)
(-0.0484047 0.0803644 0)
(-0.0576601 0.083648 0)
(-0.0670678 0.0855544 0)
(-0.0764852 0.0861232 0)
(-0.085781 0.0854077 0)
(-0.0948346 0.0834728 0)
(-0.103536 0.0803921 0)
(-0.111787 0.0762461 0)
(-0.119498 0.0711206 0)
(-0.12659 0.0651049 0)
(-0.132993 0.0582912 0)
(-0.138645 0.0507737 0)
(-0.143495 0.0426481 0)
(-0.147497 0.0340117 0)
(-0.150612 0.024963 0)
(-0.152812 0.0156023 0)
(-0.154071 0.00603167 0)
(-0.000296922 0.00778549 0)
(-0.00198082 0.0225668 0)
(-0.00560229 0.0363193 0)
(-0.0107432 0.0488588 0)
(-0.017132 0.0600474 0)
(-0.0245751 0.069782 0)
(-0.0328742 0.0779922 0)
(-0.0418339 0.0846388 0)
(-0.0512691 0.0897103 0)
(-0.0610063 0.0932195 0)
(-0.0708837 0.0952 0)
(-0.0807518 0.0957027 0)
(-0.0904741 0.0947929 0)
(-0.0999262 0.0925468 0)
(-0.108996 0.0890496 0)
(-0.117584 0.0843928 0)
(-0.1256 0.0786722 0)
(-0.132967 0.0719871 0)
(-0.139615 0.0644389 0)
(-0.145484 0.0561302 0)
(-0.150523 0.0471649 0)
(-0.154688 0.0376477 0)
(-0.157941 0.0276844 0)
(-0.160254 0.0173821 0)
(-0.161601 0.00684978 0)
(-0.000316353 0.00881896 0)
(-0.00210724 0.0254518 0)
(-0.00595426 0.0408352 0)
(-0.0114079 0.0547842 0)
(-0.0181749 0.0671633 0)
(-0.0260446 0.0778745 0)
(-0.0348026 0.0868554 0)
(-0.0442385 0.0940763 0)
(-0.0541543 0.0995369 0)
(-0.0643654 0.103263 0)
(-0.0747009 0.1053 0)
(-0.0850048 0.105714 0)
(-0.0951354 0.104582 0)
(-0.104965 0.101995 0)
(-0.114381 0.0980498 0)
(-0.123282 0.0928503 0)
(-0.131581 0.0865037 0)
(-0.139199 0.0791194 0)
(-0.14607 0.0708084 0)
(-0.152137 0.0616819 0)
(-0.157349 0.0518518 0)
(-0.161664 0.04143 0)
(-0.165047 0.030529 0)
(-0.167469 0.0192625 0)
(-0.168906 0.00774551 0)
(-0.000336571 0.00991754 0)
(-0.00223793 0.0285147 0)
(-0.00631683 0.0456236 0)
(-0.0120906 0.0610576 0)
(-0.0192421 0.0746842 0)
(-0.0275432 0.0864116 0)
(-0.036762 0.0961864 0)
(-0.0466724 0.103991 0)
(-0.0570625 0.109837 0)
(-0.0677366 0.113766 0)
(-0.078515 0.11584 0)
(-0.089235 0.116137 0)
(-0.0997506 0.114753 0)
(-0.109932 0.111793 0)
(-0.119665 0.107367 0)
(-0.12885 0.101592 0)
(-0.1374 0.0945888 0)
(-0.145241 0.0864767 0)
(-0.152308 0.0773765 0)
(-0.158546 0.0674085 0)
(-0.16391 0.0566921 0)
(-0.168359 0.0453462 0)
(-0.17186 0.0334896 0)
(-0.174385 0.0212414 0)
(-0.175911 0.00872232 0)
(-0.000357719 0.0110837 0)
(-0.00237372 0.0317614 0)
(-0.00669201 0.0506917 0)
(-0.0127943 0.0676864 0)
(-0.0203382 0.0826161 0)
(-0.0290758 0.0953964 0)
(-0.0387569 0.105985 0)
(-0.0491383 0.114377 0)
(-0.0599941 0.120601 0)
(-0.0711168 0.124715 0)
(-0.0823181 0.126799 0)
(-0.093429 0.126949 0)
(-0.1043 0.125279 0)
(-0.114799 0.121909 0)
(-0.124813 0.116968 0)
(-0.134244 0.110585 0)
(-0.143008 0.102894 0)
(-0.151034 0.094027 0)
(-0.158261 0.0841139 0)
(-0.164641 0.073284 0)
(-0.170129 0.0616643 0)
(-0.174689 0.0493799 0)
(-0.178292 0.0365552 0)
(-0.180911 0.0233143 0)
(-0.182524 0.00978225 0)
(-0.000379956 0.0123202 0)
(-0.0025155 0.0351986 0)
(-0.00708201 0.0560484 0)
(-0.0135228 0.0746793 0)
(-0.0214677 0.0909658 0)
(-0.0306473 0.104832 0)
(-0.0407913 0.116249 0)
(-0.0516385 0.125228 0)
(-0.062948 0.131816 0)
(-0.0745005 0.13609 0)
(-0.0860988 0.138152 0)
(-0.0975683 0.138119 0)
(-0.108757 0.136123 0)
(-0.119532 0.132306 0)
(-0.129782 0.126812 0)
(-0.139412 0.119787 0)
(-0.148342 0.111378 0)
(-0.156508 0.10173 0)
(-0.163853 0.0909835 0)
(-0.170333 0.0792756 0)
(-0.175911 0.0667405 0)
(-0.180555 0.0535093 0)
(-0.184238 0.039711 0)
(-0.186937 0.0254737 0)
(-0.188632 0.0109255 0)
(-0.000403472 0.0136305 0)
(-0.00266431 0.0388342 0)
(-0.00748937 0.0617037 0)
(-0.0142802 0.0820461 0)
(-0.0226356 0.0997408 0)
(-0.0322629 0.114722 0)
(-0.0428695 0.126976 0)
(-0.0541749 0.136534 0)
(-0.065922 0.143463 0)
(-0.0778795 0.147866 0)
(-0.089842 0.149866 0)
(-0.10163 0.149607 0)
(-0.113089 0.147242 0)
(-0.124088 0.142934 0)
(-0.134518 0.136847 0)
(-0.14429 0.129145 0)
(-0.153329 0.11999 0)
(-0.161578 0.109537 0)
(-0.168987 0.0979395 0)
(-0.17552 0.0853421 0)
(-0.181146 0.0718858 0)
(-0.185837 0.0577066 0)
(-0.189573 0.0429371 0)
(-0.192334 0.0277081 0)
(-0.194102 0.0121499 0)
(-0.000428497 0.0150184 0)
(-0.0028214 0.0426774 0)
(-0.00791713 0.0676693 0)
(-0.0150712 0.0897982 0)
(-0.0238482 0.108949 0)
(-0.0339289 0.125069 0)
(-0.0449963 0.138161 0)
(-0.0567487 0.14828 0)
(-0.0689124 0.155521 0)
(-0.0812435 0.16001 0)
(-0.0935287 0.161902 0)
(-0.105584 0.161365 0)
(-0.117256 0.158581 0)
(-0.128415 0.153735 0)
(-0.138958 0.147013 0)
(-0.148801 0.138598 0)
(-0.15788 0.128666 0)
(-0.166143 0.117388 0)
(-0.173554 0.104926 0)
(-0.18008 0.0914335 0)
(-0.185701 0.0770571 0)
(-0.190397 0.0619368 0)
(-0.194152 0.0462078 0)
(-0.196951 0.0300021 0)
(-0.198778 0.0134504 0)
(-0.000455323 0.0164887 0)
(-0.00298837 0.0467393 0)
(-0.0083691 0.0739589 0)
(-0.0159019 0.0979483 0)
(-0.0251128 0.118599 0)
(-0.0356525 0.135873 0)
(-0.047177 0.149797 0)
(-0.0593614 0.16045 0)
(-0.0719142 0.167958 0)
(-0.0845791 0.172482 0)
(-0.0971353 0.174207 0)
(-0.109397 0.173334 0)
(-0.12121 0.170073 0)
(-0.132451 0.164636 0)
(-0.143025 0.157233 0)
(-0.152856 0.148067 0)
(-0.16189 0.137332 0)
(-0.170088 0.125211 0)
(-0.177422 0.111876 0)
(-0.183872 0.0974893 0)
(-0.189426 0.082202 0)
(-0.194074 0.0661571 0)
(-0.197806 0.0494908 0)
(-0.200612 0.0323346 0)
(-0.202483 0.0148182 0)
(-0.000484322 0.0180468 0)
(-0.00316721 0.0510328 0)
(-0.00885005 0.0805888 0)
(-0.0167797 0.106511 0)
(-0.0264384 0.1287 0)
(-0.0374428 0.147136 0)
(-0.0494181 0.161871 0)
(-0.0620143 0.173018 0)
(-0.074921 0.180739 0)
(-0.0878696 0.185231 0)
(-0.100633 0.186719 0)
(-0.113024 0.18544 0)
(-0.124892 0.181636 0)
(-0.136123 0.17555 0)
(-0.146629 0.167417 0)
(-0.156348 0.157463 0)
(-0.165239 0.145898 0)
(-0.173275 0.132919 0)
(-0.180441 0.11871 0)
(-0.186733 0.103438 0)
(-0.192147 0.0872583 0)
(-0.196683 0.070316 0)
(-0.200342 0.0527465 0)
(-0.20312 0.0346792 0)
(-0.20501 0.0162405 0)
(-0.000515979 0.0196995 0)
(-0.0033605 0.0555737 0)
(-0.00936606 0.0875782 0)
(-0.0177142 0.115505 0)
(-0.0278367 0.139263 0)
(-0.0393108 0.158856 0)
(-0.0517275 0.174369 0)
(-0.0647089 0.185953 0)
(-0.0779248 0.193814 0)
(-0.0910945 0.198194 0)
(-0.103986 0.199361 0)
(-0.116414 0.197593 0)
(-0.128234 0.193172 0)
(-0.139342 0.186372 0)
(-0.149664 0.177458 0)
(-0.159153 0.166676 0)
(-0.167784 0.154258 0)
(-0.175546 0.140413 0)
(-0.182441 0.125334 0)
(-0.188477 0.109194 0)
(-0.193665 0.0921522 0)
(-0.198018 0.0743521 0)
(-0.201544 0.0559271 0)
(-0.204248 0.0370027 0)
(-0.20613 0.0176996 0)
(-0.000550928 0.0214551 0)
(-0.00357156 0.0603808 0)
(-0.00992496 0.0949501 0)
(-0.0187174 0.124948 0)
(-0.029322 0.150298 0)
(-0.0412705 0.17103 0)
(-0.0541147 0.18727 0)
(-0.0674465 0.199215 0)
(-0.0809149 0.207124 0)
(-0.094228 0.211292 0)
(-0.107151 0.212038 0)
(-0.119503 0.209687 0)
(-0.131151 0.204563 0)
(-0.142003 0.196979 0)
(-0.152004 0.187228 0)
(-0.161126 0.175582 0)
(-0.169362 0.16229 0)
(-0.176721 0.147576 0)
(-0.183223 0.13164 0)
(-0.188893 0.114661 0)
(-0.193758 0.0967986 0)
(-0.197842 0.0781941 0)
(-0.201167 0.0589766 0)
(-0.203745 0.039265 0)
(-0.205583 0.0191724 0)
(-0.000590005 0.0233236 0)
(-0.00380473 0.0654778 0)
(-0.0105368 0.102733 0)
(-0.0198047 0.134866 0)
(-0.0309125 0.161817 0)
(-0.0433388 0.183653 0)
(-0.056591 0.200545 0)
(-0.0702276 0.212753 0)
(-0.0838768 0.220595 0)
(-0.0972369 0.22443 0)
(-0.110074 0.224635 0)
(-0.122215 0.221592 0)
(-0.133541 0.215671 0)
(-0.143982 0.207225 0)
(-0.153502 0.196579 0)
(-0.162097 0.184033 0)
(-0.169783 0.169852 0)
(-0.176592 0.154273 0)
(-0.182563 0.137505 0)
(-0.187742 0.119728 0)
(-0.192172 0.1011 0)
(-0.195893 0.0817603 0)
(-0.198937 0.0618297 0)
(-0.201329 0.0414188 0)
(-0.203082 0.0206302 0)
(-0.000634314 0.0253179 0)
(-0.00406566 0.0708936 0)
(-0.0112146 0.11096 0)
(-0.0209956 0.145286 0)
(-0.0326308 0.173833 0)
(-0.0455363 0.196713 0)
(-0.059169 0.214159 0)
(-0.0730513 0.226501 0)
(-0.0867905 0.234133 0)
(-0.100078 0.237489 0)
(-0.112685 0.237015 0)
(-0.124452 0.233154 0)
(-0.135282 0.22633 0)
(-0.145128 0.216939 0)
(-0.153982 0.205342 0)
(-0.161867 0.191861 0)
(-0.168827 0.176783 0)
(-0.174919 0.160355 0)
(-0.180206 0.14279 0)
(-0.184755 0.124269 0)
(-0.188626 0.104949 0)
(-0.191878 0.0849587 0)
(-0.194554 0.0644126 0)
(-0.196692 0.0434091 0)
(-0.19831 0.022038 0)
(-0.000685326 0.0274539 0)
(-0.00436174 0.0766644 0)
(-0.011975 0.119674 0)
(-0.0223149 0.156242 0)
(-0.0345049 0.18636 0)
(-0.0478874 0.210196 0)
(-0.061862 0.228061 0)
(-0.0759125 0.240375 0)
(-0.0896267 0.247622 0)
(-0.102694 0.250324 0)
(-0.114896 0.249008 0)
(-0.126094 0.244188 0)
(-0.136221 0.236346 0)
(-0.145259 0.225923 0)
(-0.153234 0.213317 0)
(-0.160203 0.198877 0)
(-0.166239 0.182902 0)
(-0.171429 0.165651 0)
(-0.175862 0.14734 0)
(-0.179628 0.128147 0)
(-0.182807 0.108223 0)
(-0.185473 0.0876875 0)
(-0.187686 0.066643 0)
(-0.189493 0.0451742 0)
(-0.190923 0.023355 0)
(-0.000745012 0.0297523 0)
(-0.00470269 0.0828358 0)
(-0.0128396 0.128926 0)
(-0.0237937 0.167773 0)
(-0.0365688 0.199409 0)
(-0.0504201 0.224076 0)
(-0.0646823 0.242185 0)
(-0.0787991 0.254266 0)
(-0.0923425 0.260914 0)
(-0.105006 0.262757 0)
(-0.11659 0.260414 0)
(-0.126988 0.254477 0)
(-0.136168 0.245492 0)
(-0.144152 0.233951 0)
(-0.151008 0.220284 0)
(-0.156828 0.204865 0)
(-0.161722 0.188008 0)
(-0.165808 0.169977 0)
(-0.169204 0.150987 0)
(-0.172022 0.131212 0)
(-0.174365 0.110793 0)
(-0.176322 0.089837 0)
(-0.17797 0.0684319 0)
(-0.179365 0.0466457 0)
(-0.180547 0.0245345 0)
(-0.000816041 0.0322392 0)
(-0.00510139 0.0894654 0)
(-0.0138365 0.138781 0)
(-0.0254715 0.179926 0)
(-0.0388638 0.212989 0)
(-0.0531653 0.238315 0)
(-0.0676384 0.256442 0)
(-0.081687 0.268034 0)
(-0.0948732 0.273827 0)
(-0.106905 0.274569 0)
(-0.117614 0.270989 0)
(-0.126936 0.263763 0)
(-0.134886 0.253507 0)
(-0.141537 0.240761 0)
(-0.147002 0.225991 0)
(-0.151417 0.209589 0)
(-0.154932 0.191881 0)
(-0.157697 0.173132 0)
(-0.159861 0.153552 0)
(-0.16156 0.133306 0)
(-0.162916 0.112522 0)
(-0.164038 0.0912917 0)
(-0.165014 0.069685 0)
(-0.165912 0.0477509 0)
(-0.166783 0.0255253 0)
(-0.000902076 0.0349486 0)
(-0.00557501 0.0966262 0)
(-0.015002 0.149316 0)
(-0.0273975 0.192753 0)
(-0.0414384 0.227106 0)
(-0.0561545 0.252857 0)
(-0.0707294 0.270708 0)
(-0.0845307 0.2815 0)
(-0.0971216 0.28613 0)
(-0.108239 0.285495 0)
(-0.117762 0.280442 0)
(-0.125683 0.271746 0)
(-0.132078 0.26009 0)
(-0.137078 0.246063 0)
(-0.140852 0.230161 0)
(-0.143584 0.212792 0)
(-0.145467 0.194286 0)
(-0.146685 0.174904 0)
(-0.147416 0.154847 0)
(-0.14782 0.134266 0)
(-0.14804 0.11327 0)
(-0.148199 0.0919336 0)
(-0.148397 0.0703057 0)
(-0.148714 0.0484143 0)
(-0.149207 0.0262727 0)
(-0.00100822 0.0379252 0)
(-0.0061467 0.104412 0)
(-0.0163833 0.160627 0)
(-0.0296329 0.206312 0)
(-0.0443481 0.241752 0)
(-0.0594155 0.267614 0)
(-0.0739364 0.284818 0)
(-0.0872511 0.294425 0)
(-0.0989414 0.297532 0)
(-0.108794 0.295206 0)
(-0.116756 0.288429 0)
(-0.122895 0.278076 0)
(-0.127363 0.264899 0)
(-0.130361 0.249532 0)
(-0.132118 0.232494 0)
(-0.132873 0.214201 0)
(-0.13286 0.194979 0)
(-0.132302 0.175079 0)
(-0.131401 0.154686 0)
(-0.13034 0.133929 0)
(-0.129279 0.112899 0)
(-0.128352 0.0916472 0)
(-0.127672 0.0701996 0)
(-0.127326 0.0485609 0)
(-0.127378 0.0267209 0)
(-0.00114175 0.0412275 0)
(-0.00684816 0.112942 0)
(-0.0180427 0.172833 0)
(-0.0322534 0.220663 0)
(-0.0476531 0.256895 0)
(-0.0629644 0.282453 0)
(-0.0772077 0.298543 0)
(-0.0897148 0.306501 0)
(-0.100113 0.307668 0)
(-0.108267 0.303304 0)
(-0.11422 0.294539 0)
(-0.118137 0.282349 0)
(-0.120259 0.267551 0)
(-0.12087 0.250814 0)
(-0.120267 0.23267 0)
(-0.118742 0.213532 0)
(-0.116573 0.193713 0)
(-0.114014 0.173443 0)
(-0.111293 0.152884 0)
(-0.108609 0.132143 0)
(-0.106135 0.111281 0)
(-0.104015 0.090326 0)
(-0.102368 0.0692792 0)
(-0.101287 0.0481207 0)
(-0.100841 0.0268159 0)
(-0.00131328 0.0449343 0)
(-0.00772343 0.122371 0)
(-0.0200618 0.186072 0)
(-0.0353503 0.235862 0)
(-0.0514133 0.272469 0)
(-0.0667904 0.297175 0)
(-0.0804351 0.311566 0)
(-0.0917032 0.317324 0)
(-0.100308 0.316078 0)
(-0.106232 0.309306 0)
(-0.109646 0.298292 0)
(-0.110838 0.284109 0)
(-0.110156 0.267627 0)
(-0.107972 0.249535 0)
(-0.104655 0.230361 0)
(-0.100552 0.210504 0)
(-0.0959788 0.190249 0)
(-0.0912165 0.169798 0)
(-0.086511 0.14928 0)
(-0.082073 0.128771 0)
(-0.0780808 0.108305 0)
(-0.0746826 0.0878797 0)
(-0.0719991 0.0674709 0)
(-0.0701257 0.0470336 0)
(-0.0691337 0.0265092 0)
(-0.00153889 0.0491524 0)
(-0.00883502 0.132899 0)
(-0.0225486 0.200511 0)
(-0.0390309 0.251948 0)
(-0.0556751 0.288342 0)
(-0.0708297 0.311481 0)
(-0.0834153 0.323451 0)
(-0.0928662 0.326365 0)
(-0.0990394 0.322187 0)
(-0.102088 0.312633 0)
(-0.102347 0.299136 0)
(-0.100253 0.28285 0)
(-0.0962763 0.264679 0)
(-0.0908837 0.245309 0)
(-0.0845123 0.225246 0)
(-0.0775569 0.204852 0)
(-0.0703645 0.184375 0)
(-0.0632343 0.163974 0)
(-0.0564203 0.14374 0)
(-0.0501355 0.123712 0)
(-0.0445568 0.10389 0)
(-0.0398289 0.0842442 0)
(-0.036069 0.0647225 0)
(-0.0333694 0.0452556 0)
(-0.0318004 0.0257623 0)
(-0.00184373 0.0540298 0)
(-0.0102736 0.144786 0)
(-0.0256455 0.216337 0)
(-0.0434135 0.268913 0)
(-0.0604468 0.304273 0)
(-0.0749195 0.324919 0)
(-0.0857882 0.333592 0)
(-0.0926518 0.332935 0)
(-0.0955916 0.325285 0)
(-0.0949924 0.312601 0)
(-0.0913993 0.296446 0)
(-0.0854175 0.278028 0)
(-0.0776481 0.25825 0)
(-0.0686498 0.237765 0)
(-0.0589201 0.21703 0)
(-0.0488892 0.196353 0)
(-0.038921 0.175924 0)
(-0.029319 0.155852 0)
(-0.0203329 0.13618 0)
(-0.0121666 0.116908 0)
(-0.00498538 0.0979981 0)
(0.00107743 0.0793922 0)
(0.00591532 0.0610119 0)
(0.0094441 0.0427657 0)
(0.0115987 0.0245521 0)
(-0.00226895 0.059777 0)
(-0.0121739 0.158369 0)
(-0.0295382 0.233743 0)
(-0.0486108 0.286659 0)
(-0.0656482 0.319847 0)
(-0.0787183 0.336818 0)
(-0.0869393 0.341164 0)
(-0.0902032 0.336147 0)
(-0.0889208 0.324508 0)
(-0.0837801 0.308423 0)
(-0.0755739 0.289546 0)
(-0.0650919 0.269088 0)
(-0.0530614 0.247903 0)
(-0.0401191 0.226575 0)
(-0.0268037 0.205481 0)
(-0.01356 0.18485 0)
(-0.000748788 0.164803 0)
(0.0113408 0.145385 0)
(0.0224793 0.126587 0)
(0.0324856 0.108365 0)
(0.041217 0.0906466 0)
(0.0485611 0.0733444 0)
(0.0544291 0.0563568 0)
(0.058751 0.0395733 0)
(0.0614711 0.0228762 0)
(-0.00288452 0.0667016 0)
(-0.0147397 0.174085 0)
(-0.0344607 0.252895 0)
(-0.0546856 0.304907 0)
(-0.0710128 0.334367 0)
(-0.0815699 0.346193 0)
(-0.0858466 0.345045 0)
(-0.0842094 0.334884 0)
(-0.0775242 0.318834 0)
(-0.0668519 0.299231 0)
(-0.0532573 0.277741 0)
(-0.0377093 0.255503 0)
(-0.0210385 0.233269 0)
(-0.00392895 0.211502 0)
(0.0130719 0.190468 0)
(0.0295349 0.170296 0)
(0.0451294 0.151023 0)
(0.0596032 0.132624 0)
(0.0727659 0.115036 0)
(0.084474 0.0981709 0)
(0.0946193 0.0819239 0)
(0.103119 0.0661815 0)
(0.109911 0.0508235 0)
(0.114943 0.0357252 0)
(0.118174 0.0207581 0)
(-0.00381328 0.0752689 0)
(-0.0182819 0.192482 0)
(-0.0406807 0.273843 0)
(-0.0615465 0.323047 0)
(-0.0759027 0.346692 0)
(-0.0822732 0.351614 0)
(-0.0808464 0.343752 0)
(-0.0726956 0.327777 0)
(-0.0592716 0.307113 0)
(-0.042054 0.284129 0)
(-0.0223706 0.260384 0)
(-0.00133027 0.236856 0)
(0.0201838 0.214115 0)
(0.0414922 0.19246 0)
(0.0620856 0.172015 0)
(0.0815909 0.152792 0)
(0.0997398 0.134736 0)
(0.116343 0.11775 0)
(0.131267 0.101718 0)
(0.144423 0.0865132 0)
(0.155748 0.0720031 0)
(0.165197 0.0580547 0)
(0.172738 0.0445352 0)
(0.178345 0.0313119 0)
(0.181994 0.0182521 0)
(-0.00527452 0.0862078 0)
(-0.0232683 0.214213 0)
(-0.0484248 0.296337 0)
(-0.0687101 0.339875 0)
(-0.0789602 0.355005 0)
(-0.0787028 0.351062 0)
(-0.0692855 0.335387 0)
(-0.0527447 0.313243 0)
(-0.0312061 0.288146 0)
(-0.00655248 0.262298 0)
(0.0196952 0.236996 0)
(0.0463764 0.212937 0)
(0.0726422 0.19044 0)
(0.0978926 0.169597 0)
(0.121718 0.150369 0)
(0.143847 0.132643 0)
(0.164109 0.116273 0)
(0.182402 0.101099 0)
(0.198672 0.0869583 0)
(0.21289 0.0736933 0)
(0.225051 0.061153 0)
(0.235153 0.0491936 0)
(0.243199 0.0376774 0)
(0.249191 0.0264716 0)
(0.253123 0.0154459 0)
(-0.0076544 0.100683 0)
(-0.030355 0.23992 0)
(-0.0576315 0.319433 0)
(-0.074783 0.353155 0)
(-0.0774709 0.356502 0)
(-0.067202 0.341803 0)
(-0.0470333 0.317671 0)
(-0.0201552 0.289609 0)
(0.0106603 0.260863 0)
(0.0432611 0.233192 0)
(0.0760944 0.207435 0)
(0.108099 0.183899 0)
(0.138582 0.162595 0)
(0.167119 0.143385 0)
(0.193467 0.126063 0)
(0.217504 0.110404 0)
(0.23919 0.0961837 0)
(0.258528 0.083191 0)
(0.275554 0.0712338 0)
(0.290312 0.0601376 0)
(0.302853 0.0497441 0)
(0.313222 0.0399092 0)
(0.321459 0.0304997 0)
(0.327591 0.0213904 0)
(0.331634 0.0124612 0)
(-0.0115741 0.120523 0)
(-0.0402532 0.269849 0)
(-0.0672414 0.340745 0)
(-0.0763674 0.358994 0)
(-0.0662431 0.347103 0)
(-0.0416701 0.320412 0)
(-0.0078579 0.288176 0)
(0.0309099 0.255445 0)
(0.0714885 0.224671 0)
(0.111769 0.196834 0)
(0.150441 0.172146 0)
(0.186752 0.150447 0)
(0.220314 0.131422 0)
(0.250974 0.114718 0)
(0.278718 0.0999905 0)
(0.303611 0.0869274 0)
(0.325757 0.0752559 0)
(0.34528 0.0647406 0)
(0.362304 0.0551796 0)
(0.376944 0.0463987 0)
(0.389305 0.0382468 0)
(0.399475 0.0305908 0)
(0.407525 0.0233114 0)
(0.413508 0.0162989 0)
(0.417456 0.00945033 0)
(-0.0177485 0.14855 0)
(-0.0528821 0.30281 0)
(-0.0732995 0.355066 0)
(-0.0658499 0.351045 0)
(-0.0357683 0.321364 0)
(0.00765714 0.283172 0)
(0.0572139 0.244934 0)
(0.108135 0.210188 0)
(0.157551 0.179982 0)
(0.203923 0.154244 0)
(0.246545 0.13247 0)
(0.285205 0.114048 0)
(0.319957 0.0983948 0)
(0.35099 0.0850016 0)
(0.37855 0.0734458 0)
(0.402897 0.0633815 0)
(0.424279 0.0545278 0)
(0.442925 0.0466563 0)
(0.459037 0.0395801 0)
(0.472788 0.0331444 0)
(0.484325 0.0272194 0)
(0.493767 0.021694 0)
(0.50121 0.0164708 0)
(0.506722 0.0114625 0)
(0.51035 0.00658815 0)
(-0.0258806 0.189372 0)
(-0.0643844 0.333672 0)
(-0.0643981 0.351754 0)
(-0.0272763 0.319467 0)
(0.0304606 0.272792 0)
(0.0955014 0.227022 0)
(0.160221 0.187481 0)
(0.220819 0.155021 0)
(0.275751 0.128865 0)
(0.324687 0.107853 0)
(0.367881 0.0908877 0)
(0.40582 0.0770601 0)
(0.439054 0.0656601 0)
(0.468117 0.0561443 0)
(0.493488 0.0480995 0)
(0.515583 0.0412113 0)
(0.53476 0.0352378 0)
(0.551316 0.0299912 0)
(0.565501 0.0253234 0)
(0.57752 0.0211157 0)
(0.587542 0.0172712 0)
(0.595698 0.0137087 0)
(0.602095 0.0103588 0)
(0.606808 0.00716024 0)
(0.609888 0.00405689 0)
(-0.0296293 0.246724 0)
(-0.0583988 0.346547 0)
(-0.0119575 0.311495 0)
(0.0703987 0.251533 0)
(0.159094 0.196214 0)
(0.242193 0.152097 0)
(0.31563 0.118865 0)
(0.37876 0.0942147 0)
(0.432448 0.0758294 0)
(0.478011 0.0619131 0)
(0.516751 0.0511838 0)
(0.549796 0.0427492 0)
(0.578078 0.0359908 0)
(0.602353 0.0304765 0)
(0.623224 0.0259 0)
(0.641174 0.0220404 0)
(0.656589 0.0187356 0)
(0.669779 0.0158637 0)
(0.680993 0.0133318 0)
(0.690431 0.011067 0)
(0.698252 0.00901121 0)
(0.70458 0.00711682 0)
(0.709511 0.00534362 0)