/*--------------------------------*- C++ -*----------------------------------*\
| =========                 |                                                 |
| \\      /  F ield         | OpenFOAM: The Open Source CFD Toolbox           |
|  \\    /   O peration     | Version:  v2012                                 |
|   \\  /    A nd           | Website:  www.openfoam.com                      |
|    \\/     M anipulation  |                                                 |
\*---------------------------------------------------------------------------*/
FoamFile
{
    version     2.0;
    format      ascii;
    class       volScalarField;
    location    "0.1";
    object      p;
}
// * * * * * * * * * * * * * * * * * * * * * * * * * * * * * * * * * * * * * //

dimensions      [0 2 -2 0 0 0 0];


internalField   nonuniform List<scalar> 
2500
(
1.30265e-09
-0.00054873
-0.00225002
-0.004825
-0.00786367
-0.0110386
-0.014095
-0.0168347
-0.0191081
-0.0208054
-0.0218497
-0.022191
-0.0218018
-0.0206733
-0.0188127
-0.0162408
-0.01299
-0.0091032
-0.0046317
0.000365447
0.00582259
0.0116683
0.0178264
0.0242167
0.0307557
0.037356
0.0439288
0.0503841
0.0566334
0.0625894
0.0681674
0.0732863
0.0778703
0.0818509
0.0851679
0.0877721
0.0896266
0.0907091
0.0910143
0.0905559
0.0893699
0.0875175
0.0850885
0.0822063
0.0790336
0.0757793
0.0727042
0.0701322
0.0684663
0.0679622
0.000570791
2.33127e-05
-0.00138681
-0.00344307
-0.00585521
-0.00838427
-0.01083
-0.0130273
-0.014845
-0.0161833
-0.0169689
-0.0171518
-0.0167021
-0.0156068
-0.0138679
-0.0115004
-0.00853023
-0.00499328
-0.000933878
0.00359628
0.00853903
0.0138306
0.0194026
0.0251828
0.0310962
0.0370641
0.0430059
0.048841
0.0544898
0.0598743
0.0649187
0.0695512
0.0737051
0.0773207
0.0803466
0.0827412
0.0844751
0.0855321
0.0859119
0.0856316
0.0847282
0.0832608
0.0813131
0.0789962
0.0764513
0.0738519
0.0714032
0.0693424
0.0679582
0.0674584
0.00230573
0.00145859
3.41594e-05
-0.00182502
-0.00393433
-0.0061129
-0.00820138
-0.0100646
-0.0115916
-0.0126948
-0.0133083
-0.0133856
-0.0128977
-0.0118305
-0.0101839
-0.00796914
-0.00520836
-0.00193269
0.00181862
0.00599928
0.0105568
0.0154331
0.020566
0.0258897
0.0313355
0.0368314
0.042303
0.0476767
0.0528799
0.0578413
0.0624918
0.0667664
0.0706047
0.0739531
0.076766
0.079007
0.0806509
0.0816852
0.0821117
0.0819478
0.0812289
0.0800095
0.078365
0.0763925
0.0742125
0.0719681
0.0698234
0.067961
0.0665709
0.0657959
0.00493815
0.00355228
0.00188751
-3.32874e-06
-0.00203823
-0.00407728
-0.0059924
-0.00767523
-0.00903457
-0.00999663
-0.0105048
-0.0105185
-0.0100119
-0.00897236
-0.0073992
-0.00530249
-0.00270188
0.000374502
0.00389097
0.00780521
0.012069
0.016629
0.0214275
0.0264039
0.0314947
0.0366331
0.0417494
0.0467752
0.0516434
0.0562878
0.0606444
0.0646526
0.0682567
0.0714073
0.0740622
0.0761883
0.0777627
0.078774
0.079224
0.0791288
0.07852
0.0774458
0.0759719
0.0741817
0.0721758
0.0700711
0.0680019
0.0661118
0.0644941
0.0632092
0.00809038
0.00604024
0.00401033
0.00196267
-0.000122426
-0.0021384
-0.00398338
-0.00557348
-0.0068366
-0.00771302
-0.00815628
-0.00813286
-0.00762136
-0.00661169
-0.00510415
-0.00310847
-0.000642978
0.00226628
0.00558635
0.00927809
0.0132969
0.0175932
0.0221133
0.026801
0.0315974
0.0364398
0.0412628
0.0460022
0.0505954
0.0549805
0.0590975
0.0628892
0.0663035
0.0692939
0.0718206
0.0738524
0.0753673
0.0763541
0.0768132
0.0767578
0.0762151
0.0752262
0.0738465
0.0721457
0.0702061
0.0681212
0.0660005
0.0639562
0.0619851
0.0600605
0.011479
0.0087113
0.00624158
0.00395007
0.0017229
-0.000359529
-0.00221654
-0.00378577
-0.00501258
-0.00585076
-0.00626409
-0.00622655
-0.00572198
-0.00474367
-0.00329374
-0.0013825
0.000972193
0.00374557
0.00690659
0.0104186
0.0142397
0.0183236
0.02262
0.0270761
0.031637
0.0362434
0.0408333
0.0453461
0.0497228
0.0539047
0.0578347
0.0614585
0.0647262
0.0675931
0.0700209
0.0719791
0.0734456
0.074408
0.0748647
0.0748254
0.0743118
0.0733575
0.0720082
0.0703209
0.0683613
0.0662028
0.0639352
0.0616468
0.0592443
0.056623
0.0148873
0.0113896
0.00843816
0.00584277
0.00340562
0.00118764
-0.000746913
-0.00235393
-0.00359428
-0.0044341
-0.00484696
-0.00481442
-0.00432591
-0.00337863
-0.00197716
-0.000133069
0.00213553
0.00480444
0.00784382
0.0112187
0.0148895
0.0188122
0.0229392
0.0272208
0.0316049
0.0360351
0.040452
0.0447977
0.0490159
0.0530505
0.0568463
0.0603507
0.0635151
0.0662959
0.0686551
0.0705617
0.0719928
0.072934
0.0733809
0.0733388
0.0728238
0.0718623
0.0704908
0.0687546
0.0667055
0.0644002
0.0619139
0.0593175
0.0564382
0.0531037
0.0181469
0.0139277
0.0104749
0.00753774
0.00484427
0.0024414
0.000380968
-0.00130812
-0.00260009
-0.00347213
-0.00390693
-0.00389334
-0.00342646
-0.00250763
-0.0011443
0.000650206
0.00285696
0.00545171
0.00840527
0.0116838
0.0152493
0.0190594
0.0230687
0.0272296
0.0314926
0.0358033
0.0401043
0.0443396
0.0484547
0.0523953
0.0561073
0.0595391
0.0626426
0.065374
0.0676949
0.0695731
0.070984
0.0719106
0.0723448
0.0722875
0.0717491
0.0707489
0.0693151
0.067483
0.0652924
0.0627868
0.0600311
0.0570845
0.0537042
0.0496606
0.0211262
0.0162027
0.0122422
0.0089408
0.00596067
0.00333891
0.00111824
-0.000684927
-0.00205621
-0.00298254
-0.00345489
-0.00346899
-0.00302542
-0.00212978
-0.000792604
0.000970685
0.00313992
0.00569036
0.00859293
0.0118145
0.0153178
0.019062
0.0230031
0.0270952
0.0312903
0.0355359
0.0397756
0.0439547
0.0480202
0.0519184
0.0555959
0.0590009
0.0620852
0.0648041
0.0671181
0.068993
0.0704016
0.0713239
0.0717478
0.0716694
0.0710935
0.0700328
0.0685077
0.0665452
0.0641754
0.0614314
0.0583712
0.055047
0.0511542
0.0464136
0.0237203
0.0181115
0.0136437
0.00996561
0.00667966
0.00381637
0.001412
-0.000527307
-0.00199684
-0.00299204
-0.00351136
-0.00355685
-0.00313438
-0.00225372
-0.000928632
0.000823125
0.00297986
0.00551599
0.00840213
0.0116053
0.0150888
0.0188126
0.0227335
0.0268069
0.0309862
0.0352194
0.0394511
0.0436273
0.0476955
0.0516022
0.0552938
0.058718
0.0618254
0.06457
0.0669101
0.0688092
0.0702369
0.0711694
0.0715905
0.0714914
0.0708712
0.0697364
0.0681009
0.0659843
0.0634087
0.0603993
0.0570104
0.0532906
0.0488799
0.043455
0.0258422
0.0195651
0.0145937
0.0105326
0.00692943
0.00381046
0.00120743
-0.000881941
-0.00246123
-0.00353331
-0.00410332
-0.00417916
-0.00377167
-0.00289472
-0.00156534
0.000196246
0.00236659
0.00491897
0.0078234
0.0110466
0.0145522
0.0183003
0.0222484
0.0263525
0.0305667
0.0348395
0.0391158
0.0433416
0.0474644
0.0514304
0.0551851
0.058675
0.0618491
0.0646592
0.0670609
0.0690147
0.0704865
0.0714485
0.0718797
0.0717663
0.0711019
0.0698874
0.0681303
0.0658444
0.0630453
0.0597522
0.0560179
0.0518902
0.0469582
0.040858
0.0274172
0.0204849
0.0150138
0.0105672
0.00664077
0.0032582
0.000448234
-0.00179852
-0.00349277
-0.00464394
-0.00526319
-0.00536384
-0.00496144
-0.00407384
-0.00272131
-0.00092663
0.00128483
0.00388496
0.00684288
0.0101248
0.0136942
0.0175112
0.0215334
0.0257171
0.0300166
0.0343806
0.0387536
0.0430814
0.047311
0.0513876
0.0552553
0.0588588
0.0621449
0.0650626
0.0675644
0.0696069
0.071152
0.0721673
0.0726269
0.0725117
0.07181
0.0705169
0.0686346
0.0661716
0.0631382
0.0595492
0.0554578
0.0509129
0.0454556
0.0386836
0.0283775
0.0207985
0.014831
0.00999823
0.00574604
0.00209654
-0.000923483
-0.00332953
-0.00513858
-0.00636594
-0.00702831
-0.00714404
-0.00673318
-0.00581743
-0.0044203
-0.00256717
-0.000285485
0.00239511
0.0054426
0.00882252
0.0124978
0.0164283
0.0205716
0.0248837
0.0293189
0.0338256
0.0383477
0.0428303
0.0472195
0.051459
0.055491
0.059258
0.0627037
0.0657741
0.0684177
0.070587
0.0722391
0.0733367
0.0738485
0.07375
0.0730239
0.07166
0.0696553
0.0670134
0.0637407
0.0598484
0.0553915
0.0504215
0.0444328
0.0369856
0.0286592
0.0204371
0.0139749
0.00875626
0.00417807
0.000261677
-0.00296744
-0.0055302
-0.0074493
-0.00874545
-0.0094405
-0.00955763
-0.00912118
-0.00815667
-0.00669079
-0.00475161
-0.00236873
0.000426492
0.00360077
0.0071187
0.0109425
0.0150317
0.0193432
0.023833
0.0284545
0.0331557
0.03788
0.0425712
0.0471739
0.0516301
0.0558796
0.0598622
0.0635181
0.0667896
0.0696207
0.0719592
0.073757
0.0749712
0.0755648
0.0755075
0.0747763
0.0733554
0.0712369
0.0684202
0.0649077
0.0607084
0.0558796
0.0504767
0.0439475
0.0358148
0.0281993
0.0193332
0.012376
0.0067719
0.00186903
-0.00231168
-0.00574559
-0.00845868
-0.010479
-0.0118324
-0.0125457
-0.0126468
-0.0121641
-0.011127
-0.00956547
-0.00751023
-0.00499318
-0.00204749
0.00129214
0.00498921
0.00900512
0.0132987
0.0178264
0.0225434
0.0274026
0.0323511
0.0373314
0.0422861
0.0471578
0.0518864
0.056409
0.060662
0.0645821
0.0681068
0.0711756
0.0737307
0.0757181
0.077089
0.0778
0.0778147
0.0771037
0.0756458
0.073428
0.0704452
0.0666967
0.0621894
0.0569839
0.0511397
0.0440576
0.0352221
0.0269338
0.0174184
0.00996389
0.00397456
-0.00125065
-0.00569105
-0.00932265
-0.0121763
-0.0142853
-0.0156806
-0.0163939
-0.0164576
-0.0159046
-0.0147679
-0.0130808
-0.0108769
-0.00819054
-0.00505667
-0.00151157
0.00240708
0.00665971
0.0112044
0.0159968
0.0209915
0.0261406
0.0313902
0.0366816
0.0419561
0.0471541
0.052213
0.0570669
0.0616485
0.0658903
0.0697249
0.0730863
0.0759106
0.0781375
0.0797114
0.0805819
0.0807057
0.0800469
0.0785781
0.0762809
0.073146
0.0691693
0.0643557
0.0587694
0.0524748
0.0448238
0.0352614
0.0247961
0.014622
0.00666588
0.000291156
-0.0052533
-0.00994701
-0.0137666
-0.0167479
-0.0189296
-0.0203476
-0.0210386
-0.02104
-0.0203888
-0.0191221
-0.0172766
-0.0148888
-0.0119954
-0.00863358
-0.00484113
-0.000657009
0.0038782
0.00872172
0.0138286
0.0191525
0.0246445
0.03025
0.0359091
0.0415613
0.047145
0.0525946
0.057841
0.062813
0.0674382
0.071644
0.0753582
0.0785103
0.0810329
0.0828626
0.0839416
0.0842187
0.0836509
0.0822038
0.0798532
0.0765851
0.0723918
0.067276
0.061306
0.054551
0.0463118
0.0359917
0.0217157
0.0108698
0.0024056
-0.0043551
-0.010215
-0.015154
-0.0191494
-0.0222424
-0.0244769
-0.0258946
-0.0265373
-0.0264472
-0.0256663
-0.0242355
-0.0221953
-0.0195852
-0.0164447
-0.0128129
-0.00872926
-0.00423413
0.000630889
0.00582222
0.0112942
0.0169998
0.0228891
0.0289066
0.0349912
0.0410809
0.0471117
0.0530151
0.0587185
0.0641464
0.0692213
0.0738648
0.0779978
0.0815427
0.084424
0.0865698
0.0879138
0.0883961
0.0879655
0.0865798
0.0842082
0.0808313
0.0764372
0.0710263
0.0646704
0.0574442
0.048594
0.0374793
0.0176168
0.00608227
-0.00289821
-0.0100459
-0.0162167
-0.0213911
-0.0255477
-0.0287328
-0.0309968
-0.0323869
-0.0329507
-0.0327359
-0.0317893
-0.0301564
-0.0278816
-0.0250077
-0.0215769
-0.0176305
-0.0132098
-0.00835638
-0.00311282
0.00247655
0.00836551
0.0145063
0.0208482
0.027335
0.0339047
0.0404935
0.0470351
0.0534582
0.0596864
0.0656397
0.0712354
0.0763884
0.0810127
0.0850223
0.0883327
0.090863
0.0925368
0.0932846
0.0930456
0.0917689
0.0894158
0.0859607
0.0813863
0.0756903
0.0689481
0.0612393
0.0517523
0.0397998
0.0124174
0.00017393
-0.00933294
-0.0168688
-0.0233451
-0.0287433
-0.0330431
-0.0362973
-0.0385628
-0.0398934
-0.040343
-0.0399653
-0.0388125
-0.0369351
-0.0343817
-0.0311988
-0.0274313
-0.023123
-0.018317
-0.013056
-0.0073836
-0.00134464
0.00501423
0.0116448
0.0184958
0.0255103
0.0326258
0.039777
0.0468954
0.0539067
0.060731
0.0672836
0.0734761
0.0792165
0.0844109
0.0889645
0.092783
0.0957747
0.0978524
0.0989354
0.0989518
0.0978404
0.0955535
0.0920575
0.0873292
0.081362
0.0742347
0.0660318
0.0558792
0.04304
0.00602855
-0.00694813
-0.0169934
-0.0249189
-0.0316941
-0.0373017
-0.0417235
-0.0450193
-0.0472535
-0.0484873
-0.0487818
-0.0481973
-0.0467924
-0.044623
-0.0417423
-0.0382009
-0.0340468
-0.0293263
-0.0240841
-0.0183642
-0.012211
-0.00566967
0.00121312
0.00838894
0.0158063
0.023408
0.0311312
0.0389096
0.0466727
0.0543436
0.0618386
0.0690685
0.0759388
0.0823505
0.0882012
0.0933862
0.0978004
0.10134
0.103906
0.105405
0.105751
0.104871
0.102707
0.0992163
0.0943668
0.088147
0.0806386
0.0719304
0.0610808
0.0472999
-0.00164736
-0.0153855
-0.0259831
-0.0342996
-0.0413655
-0.0471654
-0.0516836
-0.0549882
-0.0571523
-0.0582454
-0.0583372
-0.0574956
-0.0557864
-0.0532716
-0.0500097
-0.0460556
-0.0414608
-0.0362742
-0.0305422
-0.0243101
-0.0176224
-0.0105245
-0.00306287
0.00471436
0.0127559
0.0210049
0.0293987
0.0378704
0.0463479
0.0547519
0.0629955
0.0709847
0.0786191
0.0857923
0.0923927
0.0983051
0.103413
0.107598
0.110748
0.112754
0.113516
0.112946
0.110973
0.107543
0.102613
0.0961648
0.0882826
0.0790587
0.0674785
0.0526948
-0.0107173
-0.02525
-0.036416
-0.0451248
-0.052471
-0.058442
-0.0630258
-0.0662999
-0.0683476
-0.0692486
-0.0690821
-0.0679253
-0.065852
-0.0629314
-0.0592281
-0.0548017
-0.0497076
-0.0439972
-0.0377188
-0.0309184
-0.023641
-0.0159313
-0.00783519
0.000600049
0.00932397
0.0182805
0.0274082
0.03664
0.0459028
0.0551155
0.0641881
0.0730226
0.0815125
0.0895436
0.096995
0.10374
0.109648
0.114589
0.118431
0.121049
0.122327
0.12216
0.120459
0.117155
0.112195
0.105551
0.0973067
0.0875584
0.0752117
0.0593581
-0.0212993
-0.0366654
-0.0484185
-0.0575201
-0.0651336
-0.0712497
-0.0758613
-0.0790574
-0.0809335
-0.0815812
-0.0810913
-0.0795517
-0.0770456
-0.0736508
-0.0694384
-0.0644738
-0.0588162
-0.0525201
-0.0456352
-0.0382083
-0.030284
-0.0219064
-0.0131198
-0.00397
0.00549417
0.0152183
0.025143
0.0352017
0.0453214
0.0554197
0.0654044
0.0751734
0.0846148
0.0936066
0.102018
0.10971
0.116539
0.122356
0.127013
0.130365
0.132274
0.132616
0.131282
0.128186
0.123259
0.116459
0.107871
0.0975922
0.0844411
0.0674437
-0.0335245
-0.0497697
-0.0621315
-0.0716259
-0.0794897
-0.0857183
-0.0903115
-0.0933718
-0.0950097
-0.0953311
-0.0944406
-0.092439
-0.0894209
-0.0854735
-0.080676
-0.0750998
-0.0688087
-0.0618599
-0.0543048
-0.0461905
-0.0375609
-0.0284583
-0.0189251
-0.00900463
0.0012568
0.0118077
0.0225914
0.0335433
0.0445911
0.0556524
0.0666335
0.0774293
0.0879225
0.0979837
0.107472
0.116236
0.124116
0.130945
0.136555
0.140779
0.143454
0.144431
0.143578
0.140787
0.135968
0.129066
0.12016
0.109347
0.0953521
0.0771296
-0.0475391
-0.0647184
-0.077714
-0.0875998
-0.0956918
-0.101992
-0.106509
-0.109363
-0.110681
-0.110589
-0.109206
-0.106649
-0.103027
-0.0984372
-0.0929683
-0.0866987
-0.079697
-0.0720232
-0.0637303
-0.054865
-0.04547
-0.0355852
-0.0252497
-0.0145036
-0.00338942
0.00804535
0.0197482
0.0316577
0.0437038
0.055805
0.0678675
0.079784
0.0914328
0.102678
0.113368
0.123338
0.132413
0.140406
0.147124
0.152376
0.155971
0.157731
0.157495
0.155126
0.150511
0.143573
0.134383
0.123039
0.108159
0.0886218
-0.0635082
-0.0816877
-0.0953468
-0.10562
-0.113912
-0.120231
-0.1246
-0.12716
-0.12806
-0.127447
-0.125462
-0.12224
-0.117906
-0.11257
-0.106332
-0.0992771
-0.0914799
-0.083003
-0.0739005
-0.0642181
-0.0539965
-0.0432722
-0.0320799
-0.0204551
-0.0084352
0.00393771
0.0166168
0.0295456
0.0426574
0.0558736
0.0691017
0.0822336
0.0951444
0.107692
0.119715
0.131037
0.141463
0.150786
0.158789
0.165248
0.169942
0.172658
0.173199
0.171395
0.1671
0.160209
0.150785
0.138919
0.123111
0.102159
-0.0816197
-0.10088
-0.115238
-0.125893
-0.134344
-0.140617
-0.144747
-0.146902
-0.147262
-0.145999
-0.14328
-0.139263
-0.13409
-0.127888
-0.120769
-0.112826
-0.10414
-0.0947752
-0.0847868
-0.074219
-0.0631088
-0.0514883
-0.0393867
-0.026833
-0.0138582
-0.000496828
0.0132112
0.0272162
0.0414573
0.0558603
0.0703359
0.084777
0.0990573
0.113029
0.126525
0.139352
0.1513
0.162138
0.171621
0.179492
0.185492
0.189366
0.190876
0.189809
0.185977
0.179242
0.169648
0.157276
0.140498
0.118019
-0.10209
-0.122532
-0.137628
-0.148653
-0.157214
-0.163351
-0.167126
-0.168741
-0.168409
-0.166338
-0.162726
-0.157757
-0.151597
-0.144391
-0.136263
-0.127317
-0.117638
-0.107295
-0.0963402
-0.0848162
-0.0727555
-0.0601837
-0.047123
-0.0335944
-0.0196204
-0.00522607
0.00955754
0.0246899
0.0401179
0.0557742
0.071575
0.0874166
0.103173
0.118695
0.133806
0.148302
0.161956
0.174512
0.185694
0.195209
0.202754
0.208025
0.210733
0.210611
0.20742
0.200978
0.1913
0.178452
0.160658
0.136527
-0.125173
-0.146919
-0.162803
-0.174179
-0.182778
-0.188668
-0.191939
-0.192838
-0.191626
-0.188553
-0.183855
-0.177748
-0.170427
-0.162056
-0.152774
-0.142696
-0.131912
-0.120492
-0.108486
-0.0959344
-0.0828618
-0.0692865
-0.0552212
-0.0406771
-0.025666
-0.0102018
0.00569642
0.0219992
0.0386638
0.0556325
0.0728299
0.0901585
0.107496
0.124692
0.141565
0.157904
0.17346
0.187956
0.201082
0.212505
0.22187
0.228819
0.232998
0.234076
0.231748
0.225771
0.216123
0.202845
0.183991
0.158062
-0.151169
-0.174374
-0.191103
-0.202798
-0.211341
-0.216831
-0.219405
-0.219369
-0.217042
-0.212727
-0.206709
-0.199244
-0.190555
-0.180834
-0.170234
-0.158881
-0.146868
-0.134266
-0.121123
-0.10747
-0.0933269
-0.0786998
-0.0635904
-0.0479974
-0.0319199
-0.0153579
0.00168398
0.0191899
0.0371307
0.0554612
0.0741176
0.0930121
0.112029
0.131022
0.149808
0.168166
0.185835
0.202512
0.217855
0.231484
0.24299
0.251947
0.257926
0.260514
0.259325
0.254035
0.24457
0.230928
0.21097
0.183075
-0.18044
-0.205298
-0.222938
-0.234904
-0.243256
-0.248147
-0.249774
-0.248521
-0.244782
-0.238931
-0.231309
-0.222221
-0.211927
-0.200642
-0.188539
-0.175751
-0.162376
-0.148483
-0.134113
-0.11929
-0.104021
-0.0882997
-0.0721145
-0.0554488
-0.038286
-0.0206096
-0.0024073
0.0163221
0.0355657
0.0552949
0.0754609
0.0959897
0.116777
0.137684
0.15853
0.179091
0.199094
0.218214
0.236074
0.252247
0.266263
0.277618
0.285793
0.290275
0.29057
0.286254
0.277172
0.263265
0.242161
0.212101
-0.21343
-0.240188
-0.258812
-0.270972
-0.278949
-0.282969
-0.28332
-0.280488
-0.274967
-0.267216
-0.257648
-0.246624
-0.234445
-0.221354
-0.207541
-0.193146
-0.178268
-0.16297
-0.147286
-0.131226
-0.114782
-0.0979339
-0.0806515
-0.0629009
-0.0446469
-0.0258535
-0.00648864
0.0134691
0.0340268
0.0551759
0.076887
0.0991047
0.121741
0.14467
0.16772
0.190669
0.213236
0.235079
0.255788
0.274887
0.291839
0.306052
0.3169
0.323748
0.325966
0.322993
0.314565
0.300534
0.278247
0.245785
-0.250697
-0.279666
-0.299355
-0.311585
-0.318923
-0.321707
-0.320347
-0.315471
-0.307701
-0.297603
-0.285677
-0.272348
-0.257963
-0.242793
-0.227042
-0.210856
-0.194328
-0.177513
-0.16043
-0.143074
-0.125417
-0.107421
-0.0890336
-0.0702005
-0.0508651
-0.0309688
-0.0104566
0.0107164
0.0325808
0.0551521
0.0784252
0.102368
0.126916
0.151962
0.17735
0.202869
0.228237
0.253099
0.27702
0.299474
0.319853
0.337468
0.351569
0.361368
0.366066
0.364919
0.357511
0.34356
0.320065
0.284911
-0.292945
-0.324524
-0.345357
-0.357465
-0.36379
-0.364835
-0.36119
-0.353669
-0.343062
-0.330068
-0.31529
-0.299226
-0.282269
-0.264718
-0.246785
-0.228614
-0.21029
-0.19185
-0.173294
-0.154595
-0.135702
-0.116552
-0.0970689
-0.0771739
-0.0567855
-0.03582
-0.014196
0.008158
0.0313
0.0552735
0.080103
0.105786
0.132286
0.159525
0.187372
0.215633
0.244039
0.272232
0.299756
0.326044
0.350415
0.372076
0.390131
0.403612
0.411502
0.41282
0.406933
0.39336
0.368651
0.330449
-0.341095
-0.375791
-0.397833
-0.409512
-0.414282
-0.412898
-0.406201
-0.395261
-0.38108
-0.364522
-0.346307
-0.327012
-0.307074
-0.286813
-0.266442
-0.246094
-0.225834
-0.205674
-0.185587
-0.165516
-0.145382
-0.125094
-0.104546
-0.083631
-0.0622405
-0.040262
-0.0175851
0.0058916
0.0302569
0.055587
0.0819405
0.109351
0.137818
0.167302
0.197706
0.228867
0.260542
0.292384
0.323929
0.354581
0.38359
0.410053
0.432916
0.450993
0.462996
0.46763
0.463956
0.451198
0.425309
0.383616
-0.396362
-0.434824
-0.458098
-0.468861
-0.471287
-0.466515
-0.455744
-0.440386
-0.421711
-0.40078
-0.378444
-0.355356
-0.331991
-0.308675
-0.285609
-0.262901
-0.240582
-0.218629
-0.196977
-0.175532
-0.15418
-0.132795
-0.111238
-0.0893723
-0.0670561
-0.0441468
-0.0205023
0.00401149
0.0295176
0.0561288
0.0839429
0.113035
0.143452
0.175198
0.208227
0.242422
0.27758
0.313387
0.349393
0.384986
0.419365
0.45152
0.480226
0.504046
0.521357
0.53045
0.529961
0.518671
0.491713
0.445969
-0.460393
-0.503453
-0.527881
-0.536945
-0.535869
-0.52637
-0.51016
-0.489098
-0.46479
-0.438522
-0.411279
-0.383779
-0.356515
-0.329799
-0.303797
-0.278571
-0.254103
-0.230318
-0.207102
-0.184316
-0.161802
-0.139394
-0.116917
-0.0941978
-0.0710619
-0.0473331
-0.0228355
0.00259954
0.0291324
0.0569157
0.0860913
0.116783
0.149091
0.183077
0.218758
0.256082
0.294908
0.33498
0.37589
0.417042
0.457608
0.496491
0.532292
0.563296
0.587472
0.602579
0.606658
0.597827
0.570049
0.519548
-0.535482
-0.584189
-0.609483
-0.615584
-0.609287
-0.593186
-0.569713
-0.541308
-0.509976
-0.477242
-0.444212
-0.411641
-0.380006
-0.349568
-0.320427
-0.292572
-0.265912
-0.240306
-0.215576
-0.191527
-0.16795
-0.144632
-0.121359
-0.0979189
-0.0741019
-0.049697
-0.0244932
0.0017145
0.0291253
0.0579348
0.0883327
0.120497
0.154589
0.190742
0.229047
0.269541
0.312171
0.356771
0.403015
0.450365
0.498013
0.544811
0.589208
0.629199
0.662278
0.685527
0.696165
0.691323
0.663244
0.607102
-0.624915
-0.680557
-0.705997
-0.707075
-0.692991
-0.667662
-0.634503
-0.596684
-0.556658
-0.516173
-0.476411
-0.438108
-0.401664
-0.36724
-0.334826
-0.304304
-0.275485
-0.248136
-0.222004
-0.196825
-0.172333
-0.148265
-0.124362
-0.100372
-0.0760481
-0.0511448
-0.025416
0.00138048
0.0294834
0.0591325
0.0905683
0.124028
0.159741
0.197922
0.238756
0.282386
0.328882
0.378206
0.430165
0.484342
0.540016
0.596058
0.650827
0.702046
0.746689
0.781006
0.801106
0.802658
0.775305
0.712458
-0.733575
-0.797616
-0.821613
-0.814282
-0.788565
-0.750334
-0.704307
-0.65451
-0.603842
-0.554204
-0.506755
-0.462112
-0.420515
-0.381949
-0.34624
-0.31312
-0.282268
-0.253343
-0.225997
-0.19989
-0.174691
-0.150082
-0.12576
-0.101432
-0.0768139
-0.0516261
-0.0255889
0.00157559
0.0301453
0.0604042
0.0926445
0.127165
0.16427
0.204264
0.247442
0.294077
0.344392
0.398528
0.456485
0.518051
0.582692
0.649416
0.716601
0.781793
0.841452
0.890865
0.924695
0.936479
0.911864
0.84116
-0.86903
-0.942785
-0.962013
-0.940674
-0.897559
-0.841334
-0.778329
-0.713472
-0.649992
-0.589771
-0.533767
-0.482327
-0.435401
-0.39271
-0.353844
-0.318338
-0.285707
-0.255478
-0.227198
-0.20044
-0.174806
-0.149924
-0.125442
-0.101029
-0.0763674
-0.0511457
-0.0250528
0.00222203
0.030993
0.0615864
0.094345
0.12963
0.167822
0.209324
0.254552
0.30393
0.35787
0.41674
0.480811
0.550176
0.624629
0.703488
0.785355
0.86779
0.94688
1.01691
1.07077
1.09898
1.08104
1.00163
-1.0436
-1.12716
-1.13483
-1.09022
-1.02112
-0.939957
-0.854824
-0.771371
-0.692837
-0.620744
-0.555566
-0.497149
-0.444996
-0.398445
-0.356777
-0.319279
-0.285274
-0.254139
-0.225305
-0.198258
-0.172531
-0.147696
-0.123361
-0.0991594
-0.0747429
-0.0497727
-0.0239111
0.00318012
0.0318472
0.062454
0.0953897
0.131075
0.169966
0.212565
0.259418
0.311117
0.36829
0.431585
0.501621
0.578922
0.663785
0.756084
0.854962
0.958373
1.06239
1.1605
1.24365
1.29838
1.29478
1.20733
-1.27854
-1.36762
-1.34995
-1.26683
-1.15919
-1.0439
-0.930509
-0.824736
-0.729142
-0.64432
-0.569826
-0.504712
-0.447834
-0.398027
-0.354186
-0.31531
-0.280509
-0.249002
-0.220103
-0.193213
-0.167801
-0.143391
-0.119555
-0.0958973
-0.0720474
-0.0476451
-0.0223333
0.00424753
0.0324682
0.0627229
0.0954401
0.131092
0.170205
0.213375
0.261277
0.314678
0.374443
0.441538
0.517009
0.601936
0.697329
0.803938
0.92191
1.05022
1.18567
1.32167
1.44757
1.54518
1.57106
1.48126
-1.61257
-1.68986
-1.61904
-1.47265
-1.3087
-1.14786
-0.999616
-0.86825
-0.754414
-0.656894
-0.573756
-0.502909
-0.442359
-0.390326
-0.34527
-0.305879
-0.271049
-0.239845
-0.211478
-0.185272
-0.160644
-0.137085
-0.114139
-0.0913921
-0.0684588
-0.0449677
-0.0205507
0.0051639
0.032562
0.062058
0.0941081
0.129224
0.16799
0.211081
0.259289
0.313547
0.374958
0.444825
0.52467
0.616244
0.72148
0.842371
0.980676
1.13732
1.31118
1.49721
1.68479
1.85159
1.93689
1.86473
-2.11643
-2.13137
-1.95325
-1.705
-1.46106
-1.24184
-1.05299
-0.894395
-0.762854
-0.654172
-0.564272
-0.489575
-0.427086
-0.374353
-0.329392
-0.290604
-0.256691
-0.226596
-0.199448
-0.17452
-0.151199
-0.128952
-0.107315
-0.0858673
-0.06422
-0.0420008
-0.0188419
0.00562992
0.0318039
0.0601017
0.0909922
0.125009
0.162773
0.205017
0.25262
0.306653
0.368426
0.43956
0.522059
0.618396
0.731588
0.86522
1.02335
1.21008
1.42842
1.67808
1.95244
2.22911
2.43096
2.43197
-2.9186
-2.74177
-2.35894
-1.954
-1.60122
-1.31122
-1.0788
-0.894513
-0.748489
-0.632219
-0.538891
-0.46323
-0.401203
-0.349735
-0.306468
-0.269579
-0.237644
-0.20953
-0.184327
-0.161292
-0.139802
-0.11933
-0.0994142
-0.0796443
-0.0596416
-0.0390448
-0.0174972
0.00536333
0.0299166
0.0565762
0.0858064
0.118141
0.15421
0.194768
0.240742
0.293285
0.353852
0.424309
0.507068
0.605278
0.723068
0.865838
1.04055
1.25589
1.5219
1.84829
2.23989
2.68381
3.10346
3.3149
-4.3081
-3.58007
-2.81219
-2.18381
-1.69666
-1.33081
-1.05966
-0.857445
-0.704535
-0.587114
-0.495495
-0.422855
-0.364353
-0.316501
-0.276744
-0.243173
-0.214333
-0.189096
-0.166568
-0.146028
-0.126881
-0.108623
-0.09082
-0.0730852
-0.0550638
-0.036418
-0.0168147
0.00408489
0.0266373
0.051232
0.0783087
0.108377
0.142042
0.180039
0.223284
0.272933
0.330482
0.397899
0.477821
0.573849
0.690989
0.836295
1.01979
1.25576
1.5645
1.97298
2.50883
3.19022
4.01488
4.80852
-7.04603
-4.67288
-3.13897
-2.23583
-1.63545
-1.22709
-0.948433
-0.752946
-0.611163
-0.505394
-0.424563
-0.361448
-0.311203
-0.27048
-0.236893
-0.208697
-0.184579
-0.16353
-0.144757
-0.12762
-0.111594
-0.0962363
-0.081164
-0.0660363
-0.0505407
-0.0343798
-0.0172599
0.0011173
0.0210663
0.0429308
0.0670989
0.0940211
0.124234
0.158392
0.197312
0.242036
0.293925
0.354792
0.427121
0.514398
0.621669
0.756458
0.930305
1.16159
1.48085
1.93699
2.59653
3.57225
5.19453
7.67851
-11.6812
-5.75816
-2.9879
-1.87132
-1.28228
-0.928263
-0.706926
-0.559808
-0.455785
-0.378943
-0.320397
-0.274708
-0.238339
-0.20887
-0.184577
-0.164184
-0.146724
-0.131443
-0.117741
-0.10513
-0.0932028
-0.0816146
-0.070064
-0.0582809
-0.0460162
-0.0330317
-0.0190922
-0.00395818
0.0126215
0.0309201
0.0512444
0.073948
0.0994489
0.128253
0.160985
0.198436
0.241629
0.291917
0.351143
0.42189
0.507936
0.615059
0.752632
0.937185
1.20067
1.60457
2.26074
3.47196
6.35814
12.4034
)
;

boundaryField
{
    movingWall
    {
        type            zeroGradient;
    }
    fixedWalls
    {
        type            zeroGradient;
    }
    frontAndBack
    {
        type            empty;
    }
}


// ************************************************************************* //
