/*--------------------------------*- C++ -*----------------------------------*\
| =========                 |                                                 |
| \\      /  F ield         | OpenFOAM: The Open Source CFD Toolbox           |
|  \\    /   O peration     | Version:  v2012                                 |
|   \\  /    A nd           | Website:  www.openfoam.com                      |
|    \\/     M anipulation  |                                                 |
\*---------------------------------------------------------------------------*/
FoamFile
{
    version     2.0;
    format      ascii;
    class       volVectorField;
    location    "0.1";
    object      U;
}
// * * * * * * * * * * * * * * * * * * * * * * * * * * * * * * * * * * * * * //

dimensions      [0 1 -1 0 0 0 0];


internalField   nonuniform List<vector> 
2500
(
(3.24885e-05 -3.21772e-05 0)
(9.75943e-05 -3.99451e-05 0)
(0.000135353 -2.05543e-05 0)
(0.000104245 7.91274e-06 0)
(-9.63963e-06 3.74182e-05 0)
(-0.00020486 6.46928e-05 0)
(-0.000474153 8.84395e-05 0)
(-0.000807817 0.000108249 0)
(-0.00119504 0.000124097 0)
(-0.00162469 0.000136121 0)
(-0.00208575 0.000144523 0)
(-0.00256754 0.000149532 0)
(-0.00305991 0.000151386 0)
(-0.00355327 0.000150324 0)
(-0.00403868 0.000146583 0)
(-0.00450784 0.000140392 0)
(-0.00495314 0.000131979 0)
(-0.00536768 0.000121566 0)
(-0.00574522 0.000109369 0)
(-0.00608024 9.56048e-05 0)
(-0.00636792 8.04865e-05 0)
(-0.00660413 6.42284e-05 0)
(-0.0067855 4.70425e-05 0)
(-0.00690932 2.91381e-05 0)
(-0.00697365 1.07304e-05 0)
(-0.00697731 -7.93422e-06 0)
(-0.00691998 -2.65812e-05 0)
(-0.00680214 -4.49531e-05 0)
(-0.00662518 -6.28049e-05 0)
(-0.00639129 -7.98777e-05 0)
(-0.00610354 -9.58983e-05 0)
(-0.0057659 -0.000110587 0)
(-0.00538325 -0.000123656 0)
(-0.00496137 -0.000134821 0)
(-0.00450691 -0.000143799 0)
(-0.00402741 -0.000150313 0)
(-0.00353122 -0.000154095 0)
(-0.00302746 -0.000154895 0)
(-0.00252592 -0.000152475 0)
(-0.00203699 -0.000146626 0)
(-0.00157152 -0.000137161 0)
(-0.00114065 -0.000123936 0)
(-0.000755643 -0.000106856 0)
(-0.000427502 -8.59162e-05 0)
(-0.000166545 -6.1294e-05 0)
(1.84394e-05 -3.35691e-05 0)
(0.000121542 -4.20439e-06 0)
(0.000142901 2.33895e-05 0)
(9.86178e-05 4.12395e-05 0)
(3.17766e-05 3.17084e-05 0)
(4.07238e-05 -9.77699e-05 0)
(9.27253e-05 -9.12591e-05 0)
(4.43003e-05 1.49066e-05 0)
(-0.000167982 0.000160488 0)
(-0.000570675 0.000315071 0)
(-0.00116509 0.000462854 0)
(-0.00193899 0.000595616 0)
(-0.00287237 0.00070935 0)
(-0.00394084 0.000802339 0)
(-0.00511784 0.000874129 0)
(-0.00637602 0.000924993 0)
(-0.00768819 0.000955636 0)
(-0.00902789 0.000967026 0)
(-0.0103698 0.000960291 0)
(-0.01169 0.000936659 0)
(-0.0129661 0.000897421 0)
(-0.0141774 0.000843903 0)
(-0.0153052 0.000777453 0)
(-0.0163323 0.000699433 0)
(-0.0172436 0.000611221 0)
(-0.0180258 0.000514208 0)
(-0.0186676 0.0004098 0)
(-0.0191599 0.000299416 0)
(-0.0194951 0.000184489 0)
(-0.0196683 6.64998e-05 0)
(-0.0196762 -5.2959e-05 0)
(-0.0195182 -0.000172217 0)
(-0.0191957 -0.000289604 0)
(-0.0187126 -0.000403469 0)
(-0.018075 -0.000512123 0)
(-0.0172916 -0.000613827 0)
(-0.0163732 -0.000706817 0)
(-0.0153333 -0.000789321 0)
(-0.0141876 -0.000859592 0)
(-0.0129543 -0.000915927 0)
(-0.0116536 -0.000956689 0)
(-0.010308 -0.000980353 0)
(-0.00894176 -0.000985532 0)
(-0.00758076 -0.000971022 0)
(-0.00625215 -0.000935854 0)
(-0.00498394 -0.000879365 0)
(-0.0038044 -0.000801292 0)
(-0.00274129 -0.000701932 0)
(-0.00182089 -0.000582414 0)
(-0.00106639 -0.000445202 0)
(-0.000495757 -0.00029507 0)
(-0.000118336 -0.000140924 0)
(7.05565e-05 9.40953e-07 0)
(0.000101401 0.000100304 0)
(4.16256e-05 9.86295e-05 0)
(2.21959e-05 -0.000137248 0)
(-1.02241e-05 -4.42613e-05 0)
(-0.000232098 0.000237903 0)
(-0.000698944 0.000603173 0)
(-0.00143615 0.000991925 0)
(-0.00244517 0.00136829 0)
(-0.00371038 0.00171103 0)
(-0.00520498 0.00200819 0)
(-0.00689532 0.00225351 0)
(-0.00874373 0.0024443 0)
(-0.0107107 0.00258008 0)
(-0.0127561 0.00266186 0)
(-0.0148407 0.00269159 0)
(-0.0169262 0.00267185 0)
(-0.0189764 0.00260567 0)
(-0.0209571 0.00249635 0)
(-0.0228366 0.00234739 0)
(-0.0245859 0.00216242 0)
(-0.0261786 0.00194517 0)
(-0.0275913 0.00169945 0)
(-0.0288033 0.00142914 0)
(-0.0297974 0.0011382 0)
(-0.0305591 0.000830643 0)
(-0.0310772 0.000510549 0)
(-0.0313437 0.00018214 0)
(-0.0313542 -0.000150155 0)
(-0.0311075 -0.000481736 0)
(-0.030606 -0.000807962 0)
(-0.0298558 -0.00112418 0)
(-0.0288666 -0.00142565 0)
(-0.0276517 -0.00170758 0)
(-0.0262282 -0.0019651 0)
(-0.0246168 -0.00219339 0)
(-0.0228418 -0.00238771 0)
(-0.020931 -0.00254348 0)
(-0.0189156 -0.00265636 0)
(-0.0168296 -0.00272237 0)
(-0.0147099 -0.00273798 0)
(-0.0125955 -0.00270026 0)
(-0.0105271 -0.00260703 0)
(-0.00854618 -0.00245711 0)
(-0.00669423 -0.00225064 0)
(-0.00501142 -0.00198946 0)
(-0.00353499 -0.00167795 0)
(-0.00229705 -0.00132413 0)
(-0.00132164 -0.000941703 0)
(-0.000620662 -0.000553422 0)
(-0.000188246 -0.000196103 0)
(6.40116e-06 7.08994e-05 0)
(2.49648e-05 0.00014451 0)
(-4.89777e-06 -0.000110474 0)
(-0.000152345 0.000163884 0)
(-0.000593692 0.000703514 0)
(-0.00135825 0.0013653 0)
(-0.00246044 0.00206229 0)
(-0.00389761 0.00273789 0)
(-0.00564934 0.00335596 0)
(-0.00768264 0.00389452 0)
(-0.00995639 0.00434102 0)
(-0.0124243 0.00468914 0)
(-0.0150373 0.00493683 0)
(-0.0177452 0.00508492 0)
(-0.0204982 0.00513626 0)
(-0.0232478 0.00509509 0)
(-0.0259475 0.00496661 0)
(-0.0285534 0.00475672 0)
(-0.0310244 0.0044718 0)
(-0.0333228 0.00411855 0)
(-0.0354145 0.00370398 0)
(-0.037269 0.00323527 0)
(-0.0388595 0.00271979 0)
(-0.0401633 0.00216509 0)
(-0.0411616 0.00157887 0)
(-0.0418401 0.000968973 0)
(-0.0421883 0.000343515 0)
(-0.0422006 -0.000289096 0)
(-0.0418755 -0.000920155 0)
(-0.0412164 -0.00154086 0)
(-0.0402312 -0.00214233 0)
(-0.0389326 -0.00271556 0)
(-0.0373381 -0.00325145 0)
(-0.0354699 -0.00374088 0)
(-0.0333551 -0.0041748 0)
(-0.031025 -0.00454438 0)
(-0.0285158 -0.00484113 0)
(-0.0258676 -0.00505711 0)
(-0.0231242 -0.00518509 0)
(-0.0203328 -0.00521877 0)
(-0.0175432 -0.00515312 0)
(-0.0148069 -0.00498465 0)
(-0.0121764 -0.00471189 0)
(-0.00970369 -0.00433595 0)
(-0.00743855 -0.00386135 0)
(-0.00542693 -0.00329724 0)
(-0.00370823 -0.00265925 0)
(-0.0023123 -0.00197231 0)
(-0.00125528 -0.00127511 0)
(-0.000534583 -0.000625872 0)
(-0.00012905 -0.000111495 0)
(-7.14552e-07 0.00012811 0)
(-3.33297e-05 -2.65214e-06 0)
(-0.000306582 0.000562711 0)
(-0.000988955 0.00144304 0)
(-0.00207406 0.00247007 0)
(-0.00355883 0.00353495 0)
(-0.00543268 0.00456274 0)
(-0.00766825 0.00550304 0)
(-0.0102257 0.00632348 0)
(-0.0130569 0.00700439 0)
(-0.016108 0.00753513 0)
(-0.0193219 0.00791141 0)
(-0.0226404 0.00813352 0)
(-0.0260048 0.00820502 0)
(-0.0293583 0.00813182 0)
(-0.0326457 0.00792156 0)
(-0.0358151 0.00758308 0)
(-0.0388177 0.00712614 0)
(-0.0416085 0.00656115 0)
(-0.0441467 0.00589903 0)
(-0.0463959 0.00515112 0)
(-0.0483241 0.00432907 0)
(-0.049904 0.00344486 0)
(-0.0511133 0.00251076 0)
(-0.0519347 0.00153931 0)
(-0.0523559 0.000543444 0)
(-0.0523701 -0.000463491 0)
(-0.0519758 -0.00146776 0)
(-0.0511769 -0.0024554 0)
(-0.0499831 -0.00341233 0)
(-0.0484095 -0.00432429 0)
(-0.0464772 -0.00517692 0)
(-0.0442128 -0.00595585 0)
(-0.0416484 -0.00664693 0)
(-0.0388218 -0.00723637 0)
(-0.0357756 -0.00771101 0)
(-0.0325576 -0.0080586 0)
(-0.0292197 -0.00826808 0)
(-0.0258178 -0.00833003 0)
(-0.0224104 -0.00823706 0)
(-0.0190582 -0.00798435 0)
(-0.0158227 -0.00757038 0)
(-0.0127644 -0.00699773 0)
(-0.0099415 -0.00627433 0)
(-0.00740752 -0.00541504 0)
(-0.00520889 -0.00444401 0)
(-0.00338212 -0.003398 0)
(-0.00194984 -0.00233124 0)
(-0.00091671 -0.0013213 0)
(-0.000277638 -0.000477708 0)
(-2.79947e-05 3.39906e-05 0)
(-6.04458e-05 0.000186949 0)
(-0.000460371 0.00116074 0)
(-0.00139028 0.00247008 0)
(-0.00280477 0.00393184 0)
(-0.00467974 0.00542109 0)
(-0.00699371 0.00684798 0)
(-0.00971029 0.0081496 0)
(-0.0127816 0.00928382 0)
(-0.0161522 0.010224 0)
(-0.019761 0.010955 0)
(-0.0235439 0.01147 0)
(-0.0274352 0.0117685 0)
(-0.0313691 0.0118549 0)
(-0.0352814 0.0117366 0)
(-0.03911 0.011424 0)
(-0.042796 0.0109292 0)
(-0.0462841 0.0102657 0)
(-0.0495234 0.00944804 0)
(-0.0524674 0.00849177 0)
(-0.0550747 0.00741292 0)
(-0.0573089 0.00622814 0)
(-0.059139 0.00495455 0)
(-0.0605395 0.00360974 0)
(-0.0614908 0.00221174 0)
(-0.0619788 0.000779062 0)
(-0.061996 -0.000669178 0)
(-0.0615406 -0.0021134 0)
(-0.060617 -0.00353367 0)
(-0.0592362 -0.00490985 0)
(-0.0574156 -0.00622159 0)
(-0.055179 -0.00744844 0)
(-0.0525567 -0.00857002 0)
(-0.0495851 -0.00956626 0)
(-0.0463071 -0.0104177 0)
(-0.042771 -0.0111059 0)
(-0.0390309 -0.0116136 0)
(-0.0351455 -0.0119256 0)
(-0.0311779 -0.0120288 0)
(-0.0271942 -0.0119134 0)
(-0.0232628 -0.0115731 0)
(-0.0194528 -0.0110065 0)
(-0.0158326 -0.0102179 0)
(-0.012468 -0.00921888 0)
(-0.00941986 -0.00803041 0)
(-0.00674209 -0.00668521 0)
(-0.00447917 -0.00523144 0)
(-0.00266241 -0.00373742 0)
(-0.00130664 -0.00229703 0)
(-0.000426501 -0.0010371 0)
(-5.41091e-05 -0.00013913 0)
(-8.54862e-05 0.000455111 0)
(-0.000608429 0.00195693 0)
(-0.00178396 0.00378685 0)
(-0.00352799 0.00575435 0)
(-0.00579385 0.00772361 0)
(-0.00854729 0.0095935 0)
(-0.0117412 0.0112909 0)
(-0.0153185 0.0127653 0)
(-0.0192156 0.0139837 0)
(-0.0233642 0.0149268 0)
(-0.0276933 0.0155854 0)
(-0.0321304 0.0159585 0)
(-0.0366033 0.016051 0)
(-0.0410413 0.0158724 0)
(-0.0453764 0.0154358 0)
(-0.0495438 0.0147569 0)
(-0.0534828 0.0138533 0)
(-0.0571372 0.0127442 0)
(-0.060456 0.0114501 0)
(-0.0633936 0.00999236 0)
(-0.0659097 0.00839314 0)
(-0.0679703 0.00667533 0)
(-0.0695474 0.00486245 0)
(-0.0706192 0.00297867 0)
(-0.0711703 0.00104877 0)
(-0.0711922 -0.000901745 0)
(-0.0706829 -0.00284672 0)
(-0.0696474 -0.0047596 0)
(-0.0680976 -0.00661347 0)
(-0.0660525 -0.00838121 0)
(-0.0635384 -0.0100356 0)
(-0.0605884 -0.0115494 0)
(-0.0572426 -0.0128962 0)
(-0.0535479 -0.0140502 0)
(-0.0495575 -0.0149869 0)
(-0.0453308 -0.0156838 0)
(-0.0409323 -0.0161208 0)
(-0.0364312 -0.0162812 0)
(-0.0319002 -0.016152 0)
(-0.0274147 -0.0157256 0)
(-0.0230508 -0.0150004 0)
(-0.0188841 -0.0139824 0)
(-0.0149879 -0.012687 0)
(-0.0114309 -0.0111409 0)
(-0.00827512 -0.00938483 0)
(-0.00557445 -0.00747735 0)
(-0.00337059 -0.00549889 0)
(-0.00169056 -0.00355645 0)
(-0.000570203 -0.00178944 0)
(-7.82331e-05 -0.000388357 0)
(-0.000108476 0.000797571 0)
(-0.000749218 0.00294592 0)
(-0.00216451 0.00538944 0)
(-0.00423347 0.00793505 0)
(-0.00688681 0.0104402 0)
(-0.0100764 0.0127959 0)
(-0.0137432 0.014921 0)
(-0.0178198 0.0167585 0)
(-0.0222339 0.0182702 0)
(-0.0269097 0.0194331 0)
(-0.0317688 0.0202365 0)
(-0.0367325 0.0206789 0)
(-0.0417224 0.0207662 0)
(-0.0466622 0.0205102 0)
(-0.0514784 0.0199268 0)
(-0.0561012 0.0190359 0)
(-0.0604652 0.0178594 0)
(-0.0645099 0.0164216 0)
(-0.0681803 0.0147484 0)
(-0.0714272 0.0128668 0)
(-0.0742074 0.0108051 0)
(-0.0764842 0.00859242 0)
(-0.0782273 0.00625869 0)
(-0.0794132 0.00383474 0)
(-0.0800254 0.00135217 0)
(-0.0800545 -0.00115656 0)
(-0.0794983 -0.00365823 0)
(-0.0783619 -0.00611902 0)
(-0.076658 -0.00850473 0)
(-0.0744071 -0.0107808 0)
(-0.0716369 -0.0129127 0)
(-0.068383 -0.0148661 0)
(-0.0646885 -0.016607 0)
(-0.0606037 -0.0181031 0)
(-0.0561858 -0.0193233 0)
(-0.0514985 -0.0202392 0)
(-0.0466116 -0.0208256 0)
(-0.0415995 -0.0210613 0)
(-0.0365412 -0.0209303 0)
(-0.0315181 -0.020423 0)
(-0.0266133 -0.0195375 0)
(-0.0219095 -0.0182811 0)
(-0.0174877 -0.0166725 0)
(-0.0134249 -0.0147434 0)
(-0.00979249 -0.0125421 0)
(-0.00665457 -0.0101358 0)
(-0.00406467 -0.00761497 0)
(-0.00206313 -0.00509703 0)
(-0.000707198 -0.00273023 0)
(-0.000100364 -0.000709679 0)
(-0.000129721 0.00121011 0)
(-0.000882985 0.00412091 0)
(-0.0025309 0.00727129 0)
(-0.00491823 0.0104685 0)
(-0.00795362 0.0135663 0)
(-0.0115746 0.0164504 0)
(-0.0157095 0.0190345 0)
(-0.0202799 0.0212563 0)
(-0.0252039 0.0230739 0)
(-0.0303976 0.024462 0)
(-0.0357755 0.0254086 0)
(-0.0412521 0.0259125 0)
(-0.0467435 0.0259812 0)
(-0.0521679 0.0256289 0)
(-0.0574468 0.0248752 0)
(-0.062506 0.023744 0)
(-0.0672759 0.0222622 0)
(-0.0716925 0.0204596 0)
(-0.0756974 0.0183677 0)
(-0.0792383 0.0160197 0)
(-0.0822696 0.0134504 0)
(-0.0847523 0.0106954 0)
(-0.0866543 0.00779161 0)
(-0.0879505 0.00477692 0)
(-0.0886234 0.00169014 0)
(-0.0886629 -0.00142887 0)
(-0.0880663 -0.00453937 0)
(-0.0868389 -0.00759986 0)
(-0.0849939 -0.0105684 0)
(-0.0825524 -0.0134025 0)
(-0.0795436 -0.0160598 0)
(-0.076005 -0.018498 0)
(-0.0719819 -0.0206759 0)
(-0.0675272 -0.0225533 0)
(-0.0627017 -0.0240925 0)
(-0.057573 -0.0252584 0)
(-0.052215 -0.0260203 0)
(-0.0467075 -0.026352 0)
(-0.0411347 -0.0262339 0)
(-0.0355843 -0.025654 0)
(-0.0301461 -0.0246094 0)
(-0.0249102 -0.0231083 0)
(-0.0199657 -0.0211719 0)
(-0.0153985 -0.0188363 0)
(-0.0112901 -0.0161557 0)
(-0.0077161 -0.0132049 0)
(-0.00474258 -0.0100826 0)
(-0.00242377 -0.00691391 0)
(-0.000837866 -0.00385363 0)
(-0.00012082 -0.00109916 0)
(-0.000149597 0.00168905 0)
(-0.00101076 0.0054752 0)
(-0.00288444 0.00942526 0)
(-0.00558333 0.0133482 0)
(-0.00899492 0.0170964 0)
(-0.0130423 0.0205524 0)
(-0.0176408 0.0236264 0)
(-0.0227002 0.026253 0)
(-0.0281288 0.0283881 0)
(-0.0338338 0.0300049 0)
(-0.0397224 0.0310914 0)
(-0.0457026 0.0316473 0)
(-0.0516843 0.0316823 0)
(-0.0575809 0.0312137 0)
(-0.0633092 0.0302652 0)
(-0.0687909 0.0288652 0)
(-0.0739529 0.0270461 0)
(-0.0787279 0.0248433 0)
(-0.0830547 0.0222944 0)
(-0.0868785 0.0194393 0)
(-0.0901517 0.0163193 0)
(-0.0928332 0.0129772 0)
(-0.0948895 0.00945703 0)
(-0.0962942 0.00580405 0)
(-0.0970288 0.00206464 0)
(-0.0970825 -0.00171365 0)
(-0.0964522 -0.00548218 0)
(-0.0951429 -0.00919147 0)
(-0.093168 -0.0127913 0)
(-0.0905492 -0.0162312 0)
(-0.0873167 -0.0194602 0)
(-0.083509 -0.022428 0)
(-0.0791732 -0.025085 0)
(-0.0743647 -0.0273834 0)
(-0.0691468 -0.0292778 0)
(-0.0635906 -0.0307263 0)
(-0.0577739 -0.0316914 0)
(-0.0517811 -0.032142 0)
(-0.0457018 -0.0320539 0)
(-0.0396297 -0.031412 0)
(-0.0336615 -0.0302119 0)
(-0.0278951 -0.0284618 0)
(-0.022428 -0.0261843 0)
(-0.017356 -0.0234191 0)
(-0.0127713 -0.0202251 0)
(-0.00876175 -0.0166831 0)
(-0.0054067 -0.0128982 0)
(-0.00277447 -0.00900211 0)
(-0.000963478 -0.00515424 0)
(-0.000140014 -0.00155352 0)
(-0.000168469 0.00223149 0)
(-0.00113386 0.00700302 0)
(-0.00322754 0.0118448 0)
(-0.00623203 0.0165681 0)
(-0.0100145 0.0210251 0)
(-0.0144839 0.025097 0)
(-0.019542 0.0286924 0)
(-0.0250867 0.0317444 0)
(-0.0310158 0.0342078 0)
(-0.0372276 0.0360559 0)
(-0.0436212 0.0372776 0)
(-0.050098 0.0378747 0)
(-0.0565623 0.0378597 0)
(-0.062922 0.037254 0)
(-0.0690899 0.0360855 0)
(-0.0749839 0.0343879 0)
(-0.0805276 0.0321995 0)
(-0.085651 0.0295616 0)
(-0.0902904 0.0265185 0)
(-0.094389 0.0231169 0)
(-0.0978974 0.0194052 0)
(-0.100773 0.0154333 0)
(-0.102981 0.0112528 0)
(-0.104494 0.00691647 0)
(-0.105292 0.00247854 0)
(-0.105365 -0.00200551 0)
(-0.104707 -0.00647895 0)
(-0.103325 -0.010884 0)
(-0.101231 -0.015162 0)
(-0.0984469 -0.0192539 0)
(-0.0950035 -0.0231001 0)
(-0.0909402 -0.0266416 0)
(-0.0863054 -0.0298203 0)
(-0.081156 -0.0325799 0)
(-0.0755577 -0.0348669 0)
(-0.0695844 -0.0366317 0)
(-0.0633178 -0.03783 0)
(-0.0568464 -0.0384244 0)
(-0.050265 -0.0383856 0)
(-0.0436737 -0.0376945 0)
(-0.0371759 -0.0363443 0)
(-0.0308778 -0.034342 0)
(-0.0248861 -0.031711 0)
(-0.0193069 -0.0284931 0)
(-0.0142439 -0.0247508 0)
(-0.00979783 -0.0205694 0)
(-0.00606188 -0.0160595 0)
(-0.0031185 -0.0113578 0)
(-0.00108568 -0.00662795 0)
(-0.000158365 -0.00207038 0)
(-0.000186664 0.0028353 0)
(-0.00125367 0.00869992 0)
(-0.00356305 0.0145247 0)
(-0.00686862 0.0201232 0)
(-0.011018 0.0253481 0)
(-0.0159058 0.0300807 0)
(-0.0214206 0.0342292 0)
(-0.0274479 0.0377269 0)
(-0.0338747 0.0405292 0)
(-0.0405898 0.0426105 0)
(-0.0474844 0.043962 0)
(-0.0544528 0.0445885 0)
(-0.0613935 0.0445065 0)
(-0.0682096 0.0437416 0)
(-0.0748095 0.0423273 0)
(-0.0811077 0.0403032 0)
(-0.087025 0.0377134 0)
(-0.0924889 0.0346062 0)
(-0.0974336 0.0310327 0)
(-0.101801 0.0270465 0)
(-0.10554 0.0227035 0)
(-0.108606 0.018061 0)
(-0.110965 0.0131782 0)
(-0.112587 0.00811564 0)
(-0.113452 0.00293551 0)
(-0.113548 -0.00229865 0)
(-0.112871 -0.00752187 0)
(-0.111424 -0.0126679 0)
(-0.109221 -0.0176695 0)
(-0.106283 -0.0224586 0)
(-0.102641 -0.0269669 0)
(-0.0983348 -0.0311262 0)
(-0.093413 -0.0348695 0)
(-0.0879342 -0.0381313 0)
(-0.0819658 -0.0408496 0)
(-0.0755841 -0.0429664 0)
(-0.0688741 -0.0444298 0)
(-0.0619286 -0.045195 0)
(-0.0548476 -0.0452269 0)
(-0.047737 -0.0445014 0)
(-0.0407079 -0.0430081 0)
(-0.0338749 -0.0407518 0)
(-0.0273544 -0.0377554 0)
(-0.0212635 -0.0340615 0)
(-0.0157182 -0.029735 0)
(-0.0108327 -0.0248649 0)
(-0.00671426 -0.019566 0)
(-0.00345974 -0.0139794 0)
(-0.00120621 -0.00827245 0)
(-0.000176264 -0.0026483 0)
(-0.000204466 0.00349907 0)
(-0.00137149 0.0105629 0)
(-0.00389391 0.0174614 0)
(-0.00749771 0.0240098 0)
(-0.0120113 0.0300621 0)
(-0.0173155 0.0355006 0)
(-0.0232852 0.0402346 0)
(-0.0297934 0.0441985 0)
(-0.0367158 0.0473498 0)
(-0.0439318 0.0496657 0)
(-0.0513241 0.0511408 0)
(-0.0587801 0.051784 0)
(-0.0661922 0.0516167 0)
(-0.0734587 0.0506701 0)
(-0.0804841 0.0489838 0)
(-0.0871796 0.0466036 0)
(-0.0934633 0.0435807 0)
(-0.0992608 0.0399703 0)
(-0.104505 0.0358308 0)
(-0.109135 0.0312232 0)
(-0.1131 0.0262107 0)
(-0.116356 0.0208585 0)
(-0.118864 0.0152334 0)
(-0.120597 0.00940384 0)
(-0.121532 0.00343988 0)
(-0.121658 -0.00258678 0)
(-0.120968 -0.00860285 0)
(-0.119466 -0.0145336 0)
(-0.117165 -0.0203029 0)
(-0.114085 -0.0258337 0)
(-0.110257 -0.0310486 0)
(-0.105719 -0.0358699 0)
(-0.100523 -0.040221 0)
(-0.0947256 -0.0440273 0)
(-0.0883968 -0.0472172 0)
(-0.0816147 -0.0497236 0)
(-0.0744673 -0.0514858 0)
(-0.0670512 -0.0524512 0)
(-0.0594715 -0.0525775 0)
(-0.0518406 -0.0518344 0)
(-0.044277 -0.0502067 0)
(-0.0369041 -0.0476958 0)
(-0.0298489 -0.0443226 0)
(-0.0232398 -0.0401295 0)
(-0.0172059 -0.0351826 0)
(-0.0118755 -0.0295732 0)
(-0.00737051 -0.0234197 0)
(-0.00380224 -0.0168673 0)
(-0.00132683 -0.0100874 0)
(-0.00019407 -0.00328682 0)
(-0.000222122 0.00422211 0)
(-0.00148854 0.0125904 0)
(-0.00422295 0.0206529 0)
(-0.0081239 0.0282262 0)
(-0.0130009 0.0351658 0)
(-0.0187208 0.0413556 0)
(-0.0251447 0.0467071 0)
(-0.0321328 0.0511576 0)
(-0.0395497 0.0546678 0)
(-0.0472645 0.0572189 0)
(-0.0551516 0.0588104 0)
(-0.0630912 0.0594568 0)
(-0.0709697 0.0591852 0)
(-0.0786808 0.0580336 0)
(-0.086125 0.0560484 0)
(-0.0932107 0.0532826 0)
(-0.0998537 0.0497947 0)
(-0.105978 0.0456476 0)
(-0.111515 0.0409073 0)
(-0.116403 0.0356425 0)
(-0.120591 0.029924 0)
(-0.124033 0.0238248 0)
(-0.126691 0.0174193 0)
(-0.128536 0.0107838 0)
(-0.129545 0.00399647 0)
(-0.129706 -0.00286308 0)
(-0.129012 -0.00971325 0)
(-0.127465 -0.0164707 0)
(-0.125077 -0.0230507 0)
(-0.121868 -0.0293669 0)
(-0.117866 -0.0353324 0)
(-0.113111 -0.0408601 0)
(-0.107653 -0.0458634 0)
(-0.101549 -0.0502575 0)
(-0.0948703 -0.0539607 0)
(-0.0876963 -0.0568962 0)
(-0.0801176 -0.0589935 0)
(-0.0722345 -0.060191 0)
(-0.0641572 -0.0604377 0)
(-0.0560043 -0.0596962 0)
(-0.0479021 -0.0579448 0)
(-0.0399834 -0.0551802 0)
(-0.0323858 -0.0514199 0)
(-0.0252502 -0.0467046 0)
(-0.0187192 -0.0411005 0)
(-0.0129359 -0.0347003 0)
(-0.00803743 -0.0276254 0)
(-0.00415005 -0.0200247 0)
(-0.00144921 -0.0120744 0)
(-0.000212106 -0.00398639 0)
(-0.000239841 0.00500431 0)
(-0.00160589 0.0147821 0)
(-0.00455277 0.0240989 0)
(-0.00875154 0.0327722 0)
(-0.0139928 0.040659 0)
(-0.020129 0.0476456 0)
(-0.0270075 0.0536467 0)
(-0.0344755 0.0586035 0)
(-0.0423858 0.0624816 0)
(-0.0505975 0.0652678 0)
(-0.0589762 0.0669676 0)
(-0.0673948 0.0676023 0)
(-0.0757342 0.0672064 0)
(-0.083883 0.0658256 0)
(-0.0917384 0.0635138 0)
(-0.0992061 0.0603325 0)
(-0.1062 0.056348 0)
(-0.112643 0.0516313 0)
(-0.118465 0.0462563 0)
(-0.123606 0.0402997 0)
(-0.128011 0.0338402 0)
(-0.131637 0.0269584 0)
(-0.134444 0.0197365 0)
(-0.136403 0.0122586 0)
(-0.137491 0.00461047 0)
(-0.137693 -0.0031202 0)
(-0.137003 -0.0108437 0)
(-0.135422 -0.0184683 0)
(-0.13296 -0.0259005 0)
(-0.129635 -0.0330448 0)
(-0.125475 -0.0398047 0)
(-0.120518 -0.0460832 0)
(-0.114812 -0.0517834 0)
(-0.108415 -0.0568099 0)
(-0.101399 -0.0610702 0)
(-0.093843 -0.0644765 0)
(-0.0858406 -0.0669477 0)
(-0.0774955 -0.0684118 0)
(-0.0689223 -0.068808 0)
(-0.0602461 -0.0680899 0)
(-0.0516011 -0.0662279 0)
(-0.0431298 -0.0632124 0)
(-0.0349812 -0.059056 0)
(-0.0273089 -0.0537963 0)
(-0.0202701 -0.0474982 0)
(-0.0140233 -0.040255 0)
(-0.00872167 -0.0321905 0)
(-0.00450705 -0.0234574 0)
(-0.00157491 -0.0142372 0)
(-0.000230668 -0.00474829 0)
(-0.000257805 0.00584611 0)
(-0.00172454 0.017139 0)
(-0.00488577 0.027801 0)
(-0.00938465 0.0376494 0)
(-0.0149924 0.0465432 0)
(-0.021547 0.0543718 0)
(-0.0288815 0.0610538 0)
(-0.0368298 0.0665359 0)
(-0.0452325 0.0707898 0)
(-0.0539386 0.0738094 0)
(-0.0628048 0.0756079 0)
(-0.0716968 0.0762149 0)
(-0.0804897 0.0756735 0)
(-0.0890676 0.074038 0)
(-0.0973247 0.0713716 0)
(-0.105164 0.0677444 0)
(-0.112499 0.0632317 0)
(-0.11925 0.0579128 0)
(-0.125349 0.0518703 0)
(-0.130733 0.0451888 0)
(-0.13535 0.037955 0)
(-0.139155 0.0302572 0)
(-0.14211 0.0221853 0)
(-0.144184 0.0138309 0)
(-0.145354 0.0052872 0)
(-0.145605 -0.00335029 0)
(-0.144929 -0.011984 0)
(-0.143326 -0.0205141 0)
(-0.140803 -0.0288383 0)
(-0.137378 -0.0368521 0)
(-0.133076 -0.0444496 0)
(-0.127934 -0.0515233 0)
(-0.121998 -0.0579657 0)
(-0.115326 -0.0636704 0)
(-0.107987 -0.0685332 0)
(-0.100062 -0.0724545 0)
(-0.0916464 -0.0753412 0)
(-0.0828462 -0.0771095 0)
(-0.0737808 -0.0776874 0)
(-0.0645812 -0.0770177 0)
(-0.0553899 -0.0750614 0)
(-0.0463593 -0.0718005 0)
(-0.03765 -0.067241 0)
(-0.0294296 -0.061416 0)
(-0.0218702 -0.0543876 0)
(-0.0151468 -0.0462489 0)
(-0.00942965 -0.0371253 0)
(-0.004877 -0.0271737 0)
(-0.00170544 -0.0165813 0)
(-0.000250028 -0.00557463 0)
(-0.000276174 0.00674841 0)
(-0.00184535 0.0196634 0)
(-0.00522413 0.0317618 0)
(-0.0100269 0.0428609 0)
(-0.0160049 0.0528214 0)
(-0.0229811 0.0615363 0)
(-0.0307737 0.0689296 0)
(-0.0392027 0.0749545 0)
(-0.0480966 0.0795905 0)
(-0.0572937 0.0828401 0)
(-0.0666418 0.0847259 0)
(-0.0759995 0.0852872 0)
(-0.0852361 0.0845773 0)
(-0.0942319 0.0826607 0)
(-0.102878 0.0796105 0)
(-0.111076 0.0755067 0)
(-0.118737 0.0704341 0)
(-0.125784 0.0644813 0)
(-0.132147 0.0577395 0)
(-0.137765 0.0503016 0)
(-0.142585 0.0422624 0)
(-0.146563 0.0337178 0)
(-0.149662 0.024765 0)
(-0.151851 0.0155028 0)
(-0.153107 0.00603196 0)
(-0.153413 -0.00354503 0)
(-0.152761 -0.013123 0)
(-0.151149 -0.0225943 0)
(-0.148582 -0.0318482 0)
(-0.145075 -0.0407714 0)
(-0.140652 -0.0492483 0)
(-0.135346 -0.0571612 0)
(-0.129201 -0.0643917 0)
(-0.122273 -0.0708215 0)
(-0.11463 -0.0763341 0)
(-0.106354 -0.080817 0)
(-0.0975385 -0.0841639 0)
(-0.0882936 -0.0862777 0)
(-0.0787422 -0.0870733 0)
(-0.0690214 -0.086481 0)
(-0.0592817 -0.0844502 0)
(-0.0496856 -0.0809526 0)
(-0.0404061 -0.0759859 0)
(-0.0316249 -0.0695765 0)
(-0.0235304 -0.0617826 0)
(-0.0163152 -0.0526958 0)
(-0.0101675 -0.0424427 0)
(-0.00526345 -0.0311841 0)
(-0.00184221 -0.0191139 0)
(-0.000270439 -0.00646825 0)
(-0.000295093 0.00771257 0)
(-0.00196913 0.0223582 0)
(-0.00556987 0.0359855 0)
(-0.0106817 0.048411 0)
(-0.017035 0.0594974 0)
(-0.0244368 0.0691422 0)
(-0.03269 0.0772756 0)
(-0.0416002 0.0838589 0)
(-0.0509832 0.0888809 0)
(-0.0606663 0.0923547 0)
(-0.0704885 0.0943138 0)
(-0.0803014 0.0948093 0)
(-0.0899688 0.0939059 0)
(-0.0993673 0.0916799 0)
(-0.108386 0.0882157 0)
(-0.116925 0.083604 0)
(-0.124895 0.0779401 0)
(-0.13222 0.0713222 0)
(-0.138831 0.0638507 0)
(-0.144667 0.055627 0)
(-0.149679 0.0467538 0)
(-0.153822 0.0373344 0)
(-0.15706 0.0274731 0)
(-0.159362 0.0172758 0)
(-0.160706 0.0068497 0)
(-0.161075 -0.00369576 0)
(-0.160458 -0.0142485 0)
(-0.158851 -0.0246934 0)
(-0.156258 -0.0349118 0)
(-0.15269 -0.044782 0)
(-0.148169 -0.0541787 0)
(-0.142724 -0.0629742 0)
(-0.136396 -0.0710385 0)
(-0.129238 -0.0782411 0)
(-0.121316 -0.0844526 0)
(-0.112709 -0.0895464 0)
(-0.103513 -0.0934016 0)
(-0.0938382 -0.0959061 0)
(-0.0838112 -0.0969598 0)
(-0.0735746 -0.0964785 0)
(-0.0632867 -0.0943977 0)
(-0.0531203 -0.0906765 0)
(-0.0432613 -0.085302 0)
(-0.0339064 -0.0782921 0)
(-0.025261 -0.0696991 0)
(-0.0175365 -0.0596121 0)
(-0.010941 -0.048158 0)
(-0.00566979 -0.0355017 0)
(-0.00198656 -0.0218442 0)
(-0.000292142 -0.0074327 0)
(-0.000314696 0.00874033 0)
(-0.00209664 0.0252277 0)
(-0.0059249 0.0404777 0)
(-0.0113523 0.0543056 0)
(-0.018087 0.0665765 0)
(-0.0259194 0.0771931 0)
(-0.0346359 0.0860932 0)
(-0.044027 0.0932477 0)
(-0.0538955 0.0986567 0)
(-0.0640576 0.102346 0)
(-0.0743432 0.104361 0)
(-0.084597 0.104767 0)
(-0.0946779 0.103643 0)
(-0.104459 0.101078 0)
(-0.113828 0.0971677 0)
(-0.122685 0.0920163 0)
(-0.130942 0.0857298 0)
(-0.138523 0.0784166 0)
(-0.14536 0.0701867 0)
(-0.151396 0.06115 0)
(-0.156583 0.0514171 0)
(-0.160879 0.0410985 0)
(-0.164247 0.0303054 0)
(-0.16666 0.0191497 0)
(-0.168094 0.00774481 0)
(-0.168531 -0.00379362 0)
(-0.16796 -0.0153472 0)
(-0.166375 -0.0267941 0)
(-0.163776 -0.0380083 0)
(-0.160173 -0.04886 0)
(-0.155581 -0.0592147 0)
(-0.150026 -0.0689344 0)
(-0.143546 -0.0778779 0)
(-0.136189 -0.0859019 0)
(-0.128018 -0.092863 0)
(-0.119109 -0.0986196 0)
(-0.109558 -0.103035 0)
(-0.0994735 -0.10598 0)
(-0.0889864 -0.107337 0)
(-0.0782438 -0.107006 0)
(-0.0674114 -0.104905 0)
(-0.0566724 -0.100979 0)
(-0.0462258 -0.0952003 0)
(-0.0362841 -0.0875774 0)
(-0.0270711 -0.0781544 0)
(-0.0188186 -0.0670161 0)
(-0.0117558 -0.054289 0)
(-0.0060993 -0.0401416 0)
(-0.00213981 -0.0247828 0)
(-0.000315375 -0.00847224 0)
(-0.000335117 0.00983383 0)
(-0.00222865 0.0282768 0)
(-0.00629109 0.0452448 0)
(-0.0120418 0.0605514 0)
(-0.0191651 0.0740646 0)
(-0.0274334 0.0856929 0)
(-0.0366157 0.0953835 0)
(-0.0464867 0.103119 0)
(-0.0568353 0.108912 0)
(-0.0674663 0.112802 0)
(-0.0782008 0.114853 0)
(-0.0888766 0.115144 0)
(-0.0993483 0.113768 0)
(-0.109487 0.11083 0)
(-0.119179 0.106442 0)
(-0.128324 0.100718 0)
(-0.136838 0.0937773 0)
(-0.144645 0.0857398 0)
(-0.151681 0.0767247 0)
(-0.157893 0.0668507 0)
(-0.163235 0.0562362 0)
(-0.167666 0.0449983 0)
(-0.171154 0.0332545 0)
(-0.17367 0.0211223 0)
(-0.175193 0.00872066 0)
(-0.175705 -0.0038297 0)
(-0.175191 -0.0164049 0)
(-0.173646 -0.028877 0)
(-0.171065 -0.0411137 0)
(-0.167453 -0.0529773 0)
(-0.162823 -0.0643249 0)
(-0.157195 -0.0750086 0)
(-0.1506 -0.0848756 0)
(-0.143082 -0.0937696 0)
(-0.1347 -0.101533 0)
(-0.125525 -0.108007 0)
(-0.11565 -0.113038 0)
(-0.105185 -0.116477 0)
(-0.0942599 -0.11819 0)
(-0.0830267 -0.118054 0)
(-0.0716582 -0.115969 0)
(-0.0603477 -0.111863 0)
(-0.0493076 -0.105691 0)
(-0.0387672 -0.0974474 0)
(-0.0289696 -0.0871669 0)
(-0.0201687 -0.0749278 0)
(-0.0126172 -0.0608553 0)
(-0.00655521 -0.0451211 0)
(-0.00230325 -0.027942 0)
(-0.000340372 -0.00959178 0)
(-0.000356497 0.0109956 0)
(-0.00236592 0.0315117 0)
(-0.00667038 0.0502947 0)
(-0.0127534 0.0671565 0)
(-0.0202734 0.0819682 0)
(-0.0289834 0.0946457 0)
(-0.0386337 0.105147 0)
(-0.0489818 0.113467 0)
(-0.0598024 0.119636 0)
(-0.0708887 0.123711 0)
(-0.0820526 0.125771 0)
(-0.0931259 0.125915 0)
(-0.103959 0.124254 0)
(-0.114422 0.120908 0)
(-0.124401 0.116005 0)
(-0.133798 0.109675 0)
(-0.142531 0.10205 0)
(-0.150527 0.0932603 0)
(-0.157729 0.0834356 0)
(-0.164086 0.0727035 0)
(-0.169554 0.0611895 0)
(-0.174099 0.0490173 0)
(-0.17769 0.0363098 0)
(-0.180301 0.0231894 0)
(-0.181911 0.00977928 0)
(-0.182501 -0.00379538 0)
(-0.182058 -0.0174063 0)
(-0.18057 -0.0309207 0)
(-0.178033 -0.0442006 0)
(-0.174446 -0.0571016 0)
(-0.169815 -0.069473 0)
(-0.164154 -0.0811572 0)
(-0.15749 -0.0919901 0)
(-0.149858 -0.101802 0)
(-0.141311 -0.11042 0)
(-0.131915 -0.117669 0)
(-0.121758 -0.123375 0)
(-0.110948 -0.12737 0)
(-0.0996158 -0.129496 0)
(-0.0879149 -0.129608 0)
(-0.0760249 -0.127584 0)
(-0.0641487 -0.12333 0)
(-0.0525125 -0.116781 0)
(-0.0413628 -0.107916 0)
(-0.030964 -0.0967554 0)
(-0.0215937 -0.0833689 0)
(-0.0135304 -0.0678789 0)
(-0.00704071 -0.0504593 0)
(-0.0024782 -0.0313357 0)
(-0.000367378 -0.0107969 0)
(-0.000378993 0.0122285 0)
(-0.00250934 0.0349392 0)
(-0.00706492 0.0556364 0)
(-0.0134904 0.07413 0)
(-0.0214164 0.0902948 0)
(-0.030574 0.104055 0)
(-0.0406935 0.115382 0)
(-0.0515141 0.124287 0)
(-0.0627954 0.130819 0)
(-0.0743185 0.135053 0)
(-0.0858867 0.137091 0)
(-0.0973259 0.137051 0)
(-0.108484 0.135064 0)
(-0.11923 0.131272 0)
(-0.129451 0.125817 0)
(-0.139053 0.118847 0)
(-0.147958 0.110506 0)
(-0.156099 0.100938 0)
(-0.163423 0.0902827 0)
(-0.169884 0.0786755 0)
(-0.175446 0.0662495 0)
(-0.180076 0.053134 0)
(-0.183749 0.0394565 0)
(-0.186441 0.0253433 0)
(-0.188133 0.0109208 0)
(-0.188805 -0.00368255 0)
(-0.188444 -0.0183355 0)
(-0.187035 -0.0329015 0)
(-0.184571 -0.0472382 0)
(-0.181044 -0.0611958 0)
(-0.176455 -0.0746162 0)
(-0.170811 -0.0873332 0)
(-0.16413 -0.0991716 0)
(-0.15644 -0.109949 0)
(-0.147784 -0.119476 0)
(-0.138223 -0.127559 0)
(-0.127837 -0.134004 0)
(-0.116729 -0.13862 0)
(-0.10503 -0.141224 0)
(-0.0928931 -0.141645 0)
(-0.0805037 -0.139736 0)
(-0.0680739 -0.135376 0)
(-0.0558435 -0.128477 0)
(-0.0440771 -0.118997 0)
(-0.0330613 -0.106939 0)
(-0.0231002 -0.092362 0)
(-0.0145008 -0.075383 0)
(-0.00755907 -0.0561775 0)
(-0.00266603 -0.0349794 0)
(-0.00039665 -0.0120939 0)
(-0.000402788 0.0135361 0)
(-0.00265992 0.0385674 0)
(-0.00747718 0.0612804 0)
(-0.014257 0.0814821 0)
(-0.0225989 0.0990521 0)
(-0.0322103 0.113925 0)
(-0.0427991 0.126087 0)
(-0.0540849 0.135569 0)
(-0.0658113 0.142441 0)
(-0.0777472 0.146803 0)
(-0.0896872 0.148779 0)
(-0.101452 0.148512 0)
(-0.112888 0.146157 0)
(-0.123865 0.141875 0)
(-0.134274 0.135828 0)
(-0.144024 0.128182 0)
(-0.153044 0.119096 0)
(-0.161274 0.108725 0)
(-0.168667 0.0972205 0)
(-0.175185 0.0847262 0)
(-0.180797 0.0713814 0)
(-0.185478 0.0573206 0)
(-0.189205 0.0426747 0)
(-0.19196 0.0275727 0)
(-0.193724 0.0121432 0)
(-0.194481 -0.0034841 0)
(-0.194213 -0.0191759 0)
(-0.192905 -0.0347938 0)
(-0.190544 -0.0501923 0)
(-0.187118 -0.0652174 0)
(-0.182621 -0.0797053 0)