/*--------------------------------*- C++ -*----------------------------------*\
| =========                 |                                                 |
| \\      /  F ield         | OpenFOAM: The Open Source CFD Toolbox           |
|  \\    /   O peration     | Version:  v2012                                 |
|   \\  /    A nd           | Website:  www.openfoam.com                      |
|    \\/     M anipulation  |                                                 |
\*---------------------------------------------------------------------------*/
FoamFile
{
    version     2.0;
    format      ascii;
    class       volVectorField;
    location    "0.15";
    object      U;
}
// * * * * * * * * * * * * * * * * * * * * * * * * * * * * * * * * * * * * * //

dimensions      [0 1 -1 0 0 0 0];


internalField   nonuniform List<vector> 
1250
(
(-0.00704125 -8.06293e-06 0)
(-0.00698314 -2.68653e-05 0)
(-0.00686398 -4.5412e-05 0)
(-0.00668511 -6.34411e-05 0)
(-0.00644875 -8.06817e-05 0)
(-0.00615802 -9.68549e-05 0)
(-0.00581692 -0.000111676 0)
(-0.00543041 -0.000124859 0)
(-0.00500433 -0.000136114 0)
(-0.00454543 -0.000145156 0)
(-0.00406131 -0.000151708 0)
(-0.00356043 -0.0001555 0)
(-0.00305198 -0.000156278 0)
(-0.00254587 -0.000153808 0)
(-0.00205257 -0.000147877 0)
(-0.00158303 -0.000138301 0)
(-0.00114849 -0.000124933 0)
(-0.000760298 -0.000107679 0)
(-0.000429548 -8.65363e-05 0)
(-0.000166627 -6.16865e-05 0)
(1.96209e-05 -3.37164e-05 0)
(0.000123266 -4.10371e-06 0)
(0.000144483 2.37069e-05 0)
(9.957e-05 4.1664e-05 0)
(3.20533e-05 3.19866e-05 0)
(-0.0198613 -5.39369e-05 0)
(-0.019701 -0.000174289 0)
(-0.0193747 -0.000292808 0)
(-0.0188862 -0.000407796 0)
(-0.0182417 -0.000517511 0)
(-0.0174499 -0.000620183 0)
(-0.0165219 -0.000714025 0)
(-0.0154713 -0.000797252 0)
(-0.0143141 -0.000868099 0)
(-0.0130684 -0.000924849 0)
(-0.011755 -0.000965858 0)
(-0.0103965 -0.000989589 0)
(-0.00901728 -0.00099465 0)
(-0.0076436 -0.000979834 0)
(-0.00630286 -0.000944172 0)
(-0.0050233 -0.000887003 0)
(-0.00383343 -0.000808069 0)
(-0.00276125 -0.00070768 0)
(-0.00183323 -0.000586985 0)
(-0.00107272 -0.000448479 0)
(-0.000497792 -0.000296991 0)
(-0.000117801 -0.000141516 0)
(7.20519e-05 1.4912e-06 0)
(0.000102621 0.000101531 0)
(4.20462e-05 9.95816e-05 0)
(-0.031653 -0.000153052 0)
(-0.0314027 -0.000487791 0)
(-0.030895 -0.000817196 0)
(-0.0301363 -0.00113652 0)
(-0.0291361 -0.00144093 0)
(-0.0279081 -0.00172553 0)
(-0.0264696 -0.00198542 0)
(-0.0248415 -0.00221571 0)
(-0.0230484 -0.00241163 0)
(-0.0211184 -0.00256857 0)
(-0.019083 -0.00268214 0)
(-0.0169768 -0.00274836 0)
(-0.0148368 -0.00276366 0)
(-0.0127026 -0.00272512 0)
(-0.010615 -0.00263057 0)
(-0.00861617 -0.00247883 0)
(-0.00674779 -0.00227006 0)
(-0.00505038 -0.00200617 0)
(-0.00356145 -0.00169156 0)
(-0.00231334 -0.00133438 0)
(-0.00133023 -0.000948463 0)
(-0.00062403 -0.000556798 0)
(-0.000188703 -0.000196547 0)
(6.93726e-06 7.23983e-05 0)
(2.52759e-05 0.000146083 0)
(-0.0426045 -0.000294811 0)
(-0.0422746 -0.000932007 0)
(-0.0416072 -0.0015588 0)
(-0.0406106 -0.00216617 0)
(-0.0392975 -0.00274495 0)
(-0.0376858 -0.00328592 0)
(-0.0357978 -0.00377983 0)
(-0.0336609 -0.00421755 0)
(-0.0313071 -0.00459018 0)
(-0.0287727 -0.00488915 0)
(-0.0260982 -0.00510647 0)
(-0.0233281 -0.00523487 0)
(-0.02051 -0.00526803 0)
(-0.0176941 -0.0052009 0)
(-0.0149325 -0.00503001 0)
(-0.0122782 -0.00475392 0)
(-0.00978334 -0.00437378 0)
(-0.00749841 -0.00389421 0)
(-0.00546958 -0.00332448 0)
(-0.00373653 -0.0026804 0)
(-0.00232929 -0.00198717 0)
(-0.001264 -0.00128386 0)
(-0.000537954 -0.000629224 0)
(-0.000129654 -0.000110964 0)
(-6.21983e-07 0.000129811 0)
(-0.0528698 -0.000472813 0)
(-0.0524694 -0.00148695 0)
(-0.0516605 -0.00248431 0)
(-0.0504528 -0.00345061 0)
(-0.0488617 -0.00437136 0)
(-0.0469085 -0.00523201 0)
(-0.0446201 -0.00601805 0)
(-0.0420292 -0.00671516 0)
(-0.0391738 -0.00730944 0)
(-0.0360971 -0.00778763 0)
(-0.0328475 -0.00813738 0)
(-0.0294773 -0.0083476 0)
(-0.026043 -0.00840881 0)
(-0.0226037 -0.00831361 0)
(-0.0192207 -0.00805722 0)
(-0.0159558 -0.00763815 0)
(-0.0128703 -0.00705909 0)
(-0.0100228 -0.0063281 0)
(-0.00746713 -0.00546026 0)
(-0.00525005 -0.00447995 0)
(-0.00340829 -0.00342436 0)
(-0.00196456 -0.00234823 0)
(-0.000923405 -0.00132985 0)
(-0.000279552 -0.000479736 0)
(-2.81489e-05 3.51406e-05 0)
(-0.0625813 -0.000682809 0)
(-0.0621188 -0.00214129 0)
(-0.0611836 -0.00357553 0)
(-0.0597868 -0.00496512 0)
(-0.0579461 -0.00628943 0)
(-0.0556855 -0.00752775 0)
(-0.0530357 -0.00865947 0)
(-0.0500337 -0.00966434 0)
(-0.0467226 -0.0105227 0)
(-0.0431516 -0.011216 0)
(-0.0393751 -0.0117269 0)
(-0.0354526 -0.01204 0)
(-0.0314477 -0.0121424 0)
(-0.0274272 -0.0120239 0)
(-0.02346 -0.0116786 0)
(-0.019616 -0.011105 0)
(-0.015964 -0.0103076 0)
(-0.0125703 -0.00929808 0)
(-0.00949621 -0.00809779 0)
(-0.00679608 -0.0067398 0)
(-0.00451459 -0.00527275 0)
(-0.0026832 -0.00376562 0)
(-0.00131671 -0.00231318 0)
(-0.000429731 -0.00104337 0)
(-5.45034e-05 -0.000139237 0)
(-0.0718523 -0.000920296 0)
(-0.0713352 -0.00288449 0)
(-0.0702868 -0.0048161 0)
(-0.0687192 -0.00668792 0)
(-0.0666518 -0.00847244 0)
(-0.0641111 -0.0101421 0)
(-0.0611307 -0.0116696 0)
(-0.0577511 -0.0130279 0)
(-0.0540199 -0.0141912 0)
(-0.0499908 -0.0151348 0)
(-0.0457238 -0.0158361 0)
(-0.0412841 -0.0162748 0)
(-0.0367415 -0.0164341 0)
(-0.0321695 -0.0163011 0)
(-0.0276439 -0.0158683 0)
(-0.0232417 -0.0151341 0)
(-0.0190391 -0.0141047 0)
(-0.0151098 -0.0127958 0)
(-0.011523 -0.0112343 0)
(-0.00834128 -0.00946171 0)
(-0.00561868 -0.00753692 0)
(-0.00339716 -0.0055412 0)
(-0.00170383 -0.00358255 0)
(-0.000574666 -0.00180159 0)
(-7.88455e-05 -0.000390395 0)
(-0.0807784 -0.00118056 0)
(-0.0802137 -0.00370683 0)
(-0.0790633 -0.00619156 0)
(-0.0773403 -0.00860015 0)
(-0.0750652 -0.0108976 0)
(-0.0722663 -0.0130491 0)
(-0.0689797 -0.0150197 0)
(-0.0652488 -0.0167754 0)
(-0.0611245 -0.0182834 0)
(-0.0566648 -0.0195125 0)
(-0.051934 -0.0204341 0)
(-0.0470024 -0.0210228 0)
(-0.0419454 -0.0212574 0)
(-0.0368425 -0.0211219 0)
(-0.0317758 -0.0206068 0)
(-0.0268291 -0.0197103 0)
(-0.0220858 -0.0184399 0)
(-0.0176274 -0.0168145 0)
(-0.0135314 -0.0148666 0)
(-0.00986971 -0.0126446 0)
(-0.00670681 -0.0102166 0)
(-0.0040965 -0.00767409 0)
(-0.00207928 -0.00513528 0)
(-0.000712762 -0.00274978 0)
(-0.000101166 -0.000714258 0)
(-0.0894391 -0.00145874 0)
(-0.0888335 -0.00459958 0)
(-0.0875913 -0.00768955 0)
(-0.0857259 -0.0106862 0)
(-0.0832589 -0.0135466 0)
(-0.0802199 -0.0162278 0)
(-0.0766466 -0.0186873 0)
(-0.072585 -0.0208833 0)
(-0.0680887 -0.0227755 0)
(-0.063219 -0.0243257 0)
(-0.0580442 -0.0254989 0)
(-0.0526389 -0.0262638 0)
(-0.0470836 -0.0265945 0)
(-0.0414633 -0.0264712 0)
(-0.0358664 -0.0258821 0)
(-0.0303833 -0.0248245 0)
(-0.0251049 -0.0233068 0)
(-0.0201208 -0.0213504 0)
(-0.0155175 -0.0189922 0)
(-0.011377 -0.0162869 0)
(-0.00777533 -0.0133099 0)
(-0.00477898 -0.0101609 0)
(-0.00244243 -0.00696627 0)
(-0.000844375 -0.00388193 0)
(-0.000121782 -0.00110681 0)
(-0.0978992 -0.00174971 0)
(-0.0972594 -0.00555459 0)
(-0.0959348 -0.00929913 0)
(-0.0939388 -0.0129326 0)
(-0.0912935 -0.0164038 0)
(-0.0880295 -0.0196615 0)
(-0.0841858 -0.0226547 0)
(-0.0798102 -0.0253335 0)
(-0.0749584 -0.0276496 0)
(-0.0696945 -0.0295573 0)
(-0.0640903 -0.0310145 0)
(-0.0582243 -0.0319837 0)
(-0.0521816 -0.0324334 0)
(-0.0460526 -0.0323396 0)
(-0.0399317 -0.0316872 0)
(-0.0339163 -0.0304721 0)
(-0.0281049 -0.0287027 0)
(-0.0225959 -0.026402 0)
(-0.0174854 -0.0236104 0)
(-0.0128663 -0.0203874 0)
(-0.00882681 -0.0168144 0)
(-0.00544691 -0.0129978 0)
(-0.00279521 -0.00907025 0)
(-0.000970765 -0.00519243 0)
(-0.000141104 -0.00156469 0)
(-0.10621 -0.00204799 0)
(-0.105543 -0.00656394 0)
(-0.104145 -0.0110102 0)
(-0.102029 -0.0153275 0)
(-0.0992179 -0.0194559 0)
(-0.0957424 -0.0233356 0)
(-0.0916423 -0.0269068 0)
(-0.0869666 -0.030111 0)
(-0.081773 -0.0328913 0)
(-0.0761276 -0.0351941 0)
(-0.0701051 -0.0369694 0)
(-0.0637879 -0.0381727 0)
(-0.0572652 -0.0387665 0)
(-0.0506327 -0.0387215 0)
(-0.0439909 -0.0380187 0)
(-0.0374442 -0.0366516 0)
(-0.0310994 -0.0346274 0)
(-0.0250639 -0.0319701 0)
(-0.0194443 -0.0287219 0)
(-0.0143451 -0.0249461 0)
(-0.00986748 -0.020729 0)
(-0.00610509 -0.0161821 0)
(-0.00314088 -0.0114431 0)
(-0.00109357 -0.00667695 0)
(-0.000159554 -0.00208541 0)
(-0.114409 -0.00234766 0)
(-0.113722 -0.00761964 0)
(-0.11226 -0.0128129 0)
(-0.110035 -0.0178594 0)
(-0.10707 -0.0226905 0)
(-0.103395 -0.0272371 0)
(-0.099052 -0.0314305 0)
(-0.094089 -0.035203 0)
(-0.0885655 -0.0384888 0)
(-0.0825496 -0.0412254 0)
(-0.0761182 -0.0433545 0)
(-0.069357 -0.0448239 0)
(-0.0623595 -0.0455889 0)
(-0.0552264 -0.0456142 0)
(-0.0480645 -0.044876 0)
(-0.0409855 -0.0433638 0)
(-0.0341047 -0.0410832 0)
(-0.0275392 -0.0380572 0)
(-0.0214067 -0.0343293 0)
(-0.0158239 -0.0299651 0)
(-0.0109056 -0.0250543 0)
(-0.00675964 -0.0197128 0)
(-0.0034833 -0.0140828 0)
(-0.00121455 -0.00833297 0)
(-0.000177523 -0.00266747 0)
(-0.122523 -0.00264232 0)
(-0.121823 -0.00871339 0)
(-0.120306 -0.0146973 0)
(-0.117983 -0.0205173 0)
(-0.114876 -0.0260954 0)
(-0.111015 -0.0313535 0)
(-0.106441 -0.0362133 0)
(-0.101204 -0.0405975 0)
(-0.0953623 -0.044431 0)
(-0.0889861 -0.0476417 0)
(-0.0821544 -0.0501622 0)
(-0.0749557 -0.0519317 0)
(-0.0674876 -0.0528973 0)
(-0.0598558 -0.0530167 0)
(-0.0521733 -0.0522599 0)
(-0.0445595 -0.0506117 0)
(-0.0371384 -0.048074 0)
(-0.0300376 -0.0446682 0)
(-0.0233864 -0.0404373 0)
(-0.0173144 -0.0354483 0)
(-0.0119505 -0.0297932 0)
(-0.00741723 -0.0235916 0)
(-0.00382653 -0.0169896 0)
(-0.00133544 -0.0101599 0)
(-0.000195372 -0.00331031 0)
(-0.130563 -0.00292503 0)
(-0.129859 -0.00983636 0)
(-0.128297 -0.016653 0)
(-0.125888 -0.0232892 0)
(-0.122652 -0.029658 0)
(-0.118619 -0.0356717 0)
(-0.113828 -0.0412421 0)
(-0.108329 -0.0462823 0)
(-0.102182 -0.0507068 0)
(-0.0954565 -0.0544335 0)
(-0.0882337 -0.057385 0)
(-0.0806045 -0.0594909 0)
(-0.0726702 -0.0606891 0)
(-0.0645413 -0.0609288 0)
(-0.0563373 -0.0601726 0)
(-0.0481852 -0.0583991 0)
(-0.0402185 -0.0556053 0)
(-0.0325755 -0.0518094 0)
(-0.0253978 -0.0470528 0)
(-0.0188286 -0.0414022 0)
(-0.0130116 -0.0349514 0)
(-0.00808467 -0.0278228 0)
(-0.00417463 -0.0201663 0)
(-0.00145792 -0.0121592 0)
(-0.000213427 -0.00401428 0)
(-0.138529 -0.00318833 0)
(-0.137831 -0.010979 0)
(-0.136235 -0.0186686 0)
(-0.133752 -0.0261625 0)
(-0.130401 -0.0333645 0)
(-0.126211 -0.0401773 0)
(-0.121219 -0.0465029 0)
(-0.115474 -0.0522437 0)
(-0.109035 -0.0573037 0)
(-0.101974 -0.0615901 0)
(-0.0943705 -0.0650144 0)
(-0.0863191 -0.0674954 0)
(-0.077924 -0.0689608 0)
(-0.0693006 -0.0693499 0)
(-0.0605744 -0.0686163 0)
(-0.0518806 -0.0667308 0)
(-0.0433623 -0.063684 0)
(-0.035169 -0.0594891 0)
(-0.0274552 -0.0541845 0)
(-0.0203786 -0.0478358 0)
(-0.0140985 -0.0405372 0)
(-0.00876864 -0.0324134 0)
(-0.00453152 -0.0236183 0)
(-0.00158359 -0.0143343 0)
(-0.000231984 -0.00478062 0)
(-0.146409 -0.00342425 0)
(-0.145725 -0.0121309 0)
(-0.144107 -0.0207315 0)
(-0.141565 -0.0291228 0)
(-0.138116 -0.0371993 0)
(-0.133785 -0.0448541 0)
(-0.12861 -0.051979 0)
(-0.122637 -0.0584658 0)
(-0.115925 -0.0642071 0)
(-0.108542 -0.0690985 0)
(-0.100572 -0.0730397 0)
(-0.0921096 -0.0759376 0)
(-0.0832614 -0.0777079 0)
(-0.0741476 -0.0782786 0)
(-0.0649 -0.0775928 0)
(-0.0556617 -0.0756115 0)
(-0.0465855 -0.0723173 0)
(-0.037833 -0.0677167 0)
(-0.0295723 -0.0618434 0)
(-0.0219762 -0.0547603 0)
(-0.0152203 -0.0465615 0)
(-0.0094756 -0.0373733 0)
(-0.00490096 -0.0273535 0)
(-0.00171394 -0.0166905 0)
(-0.000251317 -0.00561133 0)
(-0.154174 -0.00362436 0)
(-0.153514 -0.0132807 0)
(-0.151889 -0.0228278 0)
(-0.149304 -0.0321538 0)
(-0.145774 -0.0411444 0)
(-0.141324 -0.049683 0)
(-0.135987 -0.0576511 0)
(-0.129808 -0.0649294 0)
(-0.122842 -0.0713988 0)
(-0.115158 -0.0769424 0)
(-0.106839 -0.0814472 0)
(-0.0979798 -0.0848065 0)
(-0.0886895 -0.086923 0)
(-0.0790924 -0.0877115 0)
(-0.0693262 -0.0871026 0)
(-0.0595417 -0.0850456 0)
(-0.0499023 -0.0815129 0)
(-0.0405816 -0.0765026 0)
(-0.0317619 -0.0700418 0)
(-0.0236323 -0.0621894 0)
(-0.0163859 -0.053038 0)
(-0.0102117 -0.042715 0)
(-0.00528651 -0.0313824 0)
(-0.0018504 -0.0192349 0)
(-0.000271681 -0.0065092 0)
(-0.161781 -0.00377989 0)
(-0.161157 -0.0144161 0)
(-0.159539 -0.0249417 0)
(-0.156929 -0.0352369 0)
(-0.153341 -0.0451789 0)
(-0.148795 -0.0546414 0)
(-0.143322 -0.0634957 0)
(-0.136962 -0.0716111 0)
(-0.129769 -0.0788563 0)
(-0.121809 -0.0851011 0)
(-0.113163 -0.0902186 0)
(-0.103926 -0.0940875 0)
(-0.0942093 -0.0965955 0)
(-0.0841398 -0.0976423 0)
(-0.0738608 -0.0971438 0)
(-0.0635312 -0.0950358 0)
(-0.0533243 -0.0912779 0)
(-0.0434267 -0.0858574 0)
(-0.0340356 -0.0787932 0)
(-0.0253571 -0.0701382 0)
(-0.0176034 -0.0599823 0)
(-0.0109828 -0.0484536 0)
(-0.00569162 -0.0357176 0)
(-0.00199432 -0.0219764 0)
(-0.000293319 -0.00747772 0)
(-0.169173 -0.00388186 0)
(-0.168596 -0.0155236 0)
(-0.167 -0.0270556 0)
(-0.164388 -0.038351 0)
(-0.160766 -0.0492784 0)
(-0.156152 -0.0597026 0)
(-0.150572 -0.0694846 0)
(-0.144063 -0.0784822 0)
(-0.136675 -0.0865515 0)
(-0.128469 -0.0935482 0)
(-0.119525 -0.0993303 0)
(-0.109937 -0.10376 0)
(-0.0998144 -0.10671 0)
(-0.0892887 -0.10806 0)
(-0.0785074 -0.107711 0)
(-0.0676369 -0.105583 0)
(-0.0568608 -0.101618 0)
(-0.0463787 -0.0957917 0)
(-0.0364038 -0.0881119 0)
(-0.0271603 -0.0786236 0)
(-0.0188806 -0.0674126 0)
(-0.0117946 -0.0546062 0)
(-0.00611959 -0.040374 0)
(-0.00214702 -0.0249255 0)
(-0.000316469 -0.00852106 0)
(-0.176273 -0.00392129 0)
(-0.175755 -0.0165887 0)
(-0.174201 -0.02915 0)
(-0.171607 -0.0414716 0)
(-0.16798 -0.0534147 0)
(-0.163331 -0.0648353 0)
(-0.15768 -0.0755843 0)
(-0.151061 -0.0855081 0)
(-0.143516 -0.0944498 0)
(-0.135103 -0.10225 0)
(-0.125897 -0.108752 0)
(-0.11599 -0.113799 0)
(-0.105491 -0.117244 0)
(-0.0945314 -0.11895 0)
(-0.0832639 -0.118796 0)
(-0.0718614 -0.116683 0)
(-0.0605177 -0.112537 0)
(-0.0494459 -0.106315 0)
(-0.0388754 -0.0980122 0)
(-0.0290503 -0.0876636 0)
(-0.0202249 -0.0753484 0)
(-0.0126525 -0.0611925 0)
(-0.00657366 -0.0453687 0)
(-0.00230982 -0.0280945 0)
(-0.00034137 -0.0096441 0)
(-0.182988 -0.00388946 0)
(-0.182541 -0.0175962 0)
(-0.181047 -0.0312033 0)
(-0.178499 -0.0445714 0)
(-0.174899 -0.0575551 0)
(-0.170252 -0.0700024 0)
(-0.164573 -0.0817546 0)
(-0.157888 -0.0926468 0)
(-0.150233 -0.102509 0)
(-0.14166 -0.111166 0)
(-0.132238 -0.118444 0)
(-0.122054 -0.124167 0)
(-0.111215 -0.128168 0)
(-0.0998528 -0.130287 0)
(-0.0881224 -0.130382 0)
(-0.0762029 -0.128329 0)
(-0.0642979 -0.124034 0)
(-0.052634 -0.117435 0)
(-0.0414583 -0.108508 0)
(-0.0310353 -0.0972766 0)
(-0.0216434 -0.0838109 0)
(-0.0135617 -0.0682339 0)
(-0.00705707 -0.0507205 0)
(-0.00248403 -0.0314969 0)
(-0.000368266 -0.0108524 0)
(-0.189203 -0.00377821 0)
(-0.188839 -0.0185299 0)
(-0.187426 -0.0331916 0)
(-0.184953 -0.0476193 0)
(-0.181416 -0.0616622 0)
(-0.176815 -0.075161 0)
(-0.171157 -0.0879483 0)
(-0.164459 -0.0998482 0)
(-0.156751 -0.110677 0)
(-0.148075 -0.120245 0)
(-0.138492 -0.128358 0)
(-0.128083 -0.134822 0)
(-0.116953 -0.139445 0)
(-0.105229 -0.142042 0)
(-0.0930677 -0.142446 0)
(-0.080654 -0.140508 0)
(-0.0682003 -0.136106 0)
(-0.0559467 -0.129155 0)
(-0.0441583 -0.119612 0)
(-0.0331222 -0.107481 0)
(-0.0231428 -0.0928225 0)
(-0.0145276 -0.0757535 0)
(-0.00757313 -0.0564505 0)
(-0.00267105 -0.0351482 0)
(-0.000397418 -0.0121521 0)
(-0.194784 -0.00358036 0)
(-0.194514 -0.0193734 0)
(-0.193204 -0.0350891 0)
(-0.190838 -0.0505809 0)
(-0.187405 -0.0656934 0)
(-0.182899 -0.0802616 0)
(-0.177318 -0.0941103 0)
(-0.17067 -0.107053 0)
(-0.162975 -0.118893 0)
(-0.154263 -0.129425 0)
(-0.144588 -0.138435 0)
(-0.134021 -0.145707 0)
(-0.122658 -0.151023 0)
(-0.110625 -0.154173 0)
(-0.098077 -0.154957 0)
(-0.0852014 -0.153197 0)
(-0.0722194 -0.148742 0)
(-0.0593843 -0.141477 0)
(-0.04698 -0.131333 0)
(-0.0353174 -0.118295 0)
(-0.0247295 -0.102406 0)
(-0.0155556 -0.0837763 0)
(-0.00812528 -0.0625818 0)
(-0.00287233 -0.0390653 0)
(-0.00042911 -0.0135503 0)
(-0.199571 -0.00329011 0)
(-0.199407 -0.0201096 0)
(-0.198222 -0.0368682 0)
(-0.195997 -0.0534179 0)
(-0.192714 -0.0696008 0)
(-0.188359 -0.0852477 0)
(-0.18292 -0.100177 0)
(-0.176395 -0.114192 0)
(-0.168789 -0.127084 0)
(-0.160124 -0.138631 0)
(-0.150438 -0.148601 0)
(-0.139791 -0.156752 0)
(-0.128272 -0.16284 0)
(-0.115996 -0.166624 0)
(-0.103118 -0.167871 0)
(-0.0898248 -0.166366 0)
(-0.0763449 -0.161924 0)
(-0.0629445 -0.154395 0)
(-0.0499263 -0.14368 0)
(-0.0376268 -0.129735 0)
(-0.0264103 -0.112585 0)
(-0.0166513 -0.0923285 0)
(-0.00871728 -0.0691391 0)
(-0.00308951 -0.043267 0)
(-0.000463663 -0.0150547 0)
(-0.203382 -0.00290358 0)
(-0.203334 -0.0207221 0)
(-0.202297 -0.0384995 0)
(-0.20025 -0.0560887 0)
(-0.197167 -0.0733312 0)
(-0.193025 -0.0900554 0)
(-0.187801 -0.106074 0)
(-0.181481 -0.121184 0)
(-0.174056 -0.135164 0)
(-0.165532 -0.147776 0)
(-0.155932 -0.158768 0)
(-0.145302 -0.167873 0)
(-0.133717 -0.174818 0)
(-0.121284 -0.179327 0)
(-0.108147 -0.181129 0)
(-0.0944957 -0.179971 0)
(-0.0805609 -0.175623 0)
(-0.066621 -0.167897 0)
(-0.0529981 -0.156652 0)
(-0.0400555 -0.141815 0)
(-0.0281917 -0.123383 0)
(-0.0178209 -0.101438 0)
(-0.00935327 -0.0761494 0)
(-0.00332443 -0.0477741 0)
(-0.000501448 -0.016674 0)
(-0.20601 -0.00241936 0)
(-0.206084 -0.0211947 0)
(-0.205219 -0.0399524 0)
(-0.203388 -0.0585483 0)
(-0.200559 -0.0768258 0)
(-0.196698 -0.094613 0)
(-0.191773 -0.11172 0)
(-0.185751 -0.127937 0)
(-0.17861 -0.143033 0)
(-0.170337 -0.156755 0)
(-0.160938 -0.16883 0)
(-0.15044 -0.178967 0)
(-0.138901 -0.186859 0)
(-0.126412 -0.192194 0)
(-0.11311 -0.194659 0)
(-0.099176 -0.193953 0)
(-0.0848447 -0.189799 0)
(-0.0704037 -0.181959 0)
(-0.0561943 -0.170247 0)
(-0.0426081 -0.154545 0)
(-0.0300808 -0.134821 0)
(-0.0190711 -0.111133 0)
(-0.010038 -0.0836421 0)
(-0.00357924 -0.0526092 0)
(-0.000542902 -0.0184179 0)
(-0.207217 -0.00183905 0)
(-0.207419 -0.0215127 0)
(-0.206749 -0.0411954 0)
(-0.205174 -0.0607487 0)
(-0.202657 -0.0800206 0)
(-0.199153 -0.0988416 0)
(-0.194615 -0.117021 0)
(-0.188997 -0.134346 0)
(-0.182257 -0.150577 0)
(-0.174363 -0.165448 0)
(-0.165298 -0.178664 0)
(-0.155067 -0.18991 0)
(-0.143707 -0.198846 0)
(-0.131289 -0.205118 0)
(-0.117935 -0.208366 0)
(-0.103816 -0.208237 0)
(-0.0891653 -0.204396 0)
(-0.0742773 -0.196548 0)
(-0.0595114 -0.18445 0)
(-0.0452886 -0.167933 0)
(-0.0320852 -0.146921 0)
(-0.0204096 -0.121445 0)
(-0.0107771 -0.0916488 0)
(-0.00385649 -0.0577978 0)
(-0.00058856 -0.0202973 0)
(-0.20674 -0.00116792 0)
(-0.207072 -0.021663 0)
(-0.206618 -0.0421968 0)
(-0.205342 -0.0626397 0)
(-0.203197 -0.0828471 0)
(-0.200129 -0.102655 0)
(-0.196078 -0.121875 0)
(-0.19098 -0.140294 0)
(-0.184773 -0.157666 0)
(-0.177402 -0.173714 0)
(-0.168824 -0.188126 0)
(-0.159018 -0.200558 0)
(-0.147994 -0.210637 0)
(-0.1358 -0.217966 0)
(-0.122534 -0.222132 0)
(-0.108353 -0.222723 0)
(-0.0934821 -0.219339 0)
(-0.0782205 -0.211614 0)
(-0.0629431 -0.199237 0)
(-0.0481006 -0.181977 0)
(-0.0342134 -0.159702 0)
(-0.0218458 -0.132403 0)
(-0.0115772 -0.100204 0)
(-0.00415934 -0.0633683 0)
(-0.000639081 -0.0223246 0)
(-0.204287 -0.000415411 0)
(-0.204747 -0.0216351 0)
(-0.204528 -0.0429258 0)
(-0.203591 -0.0641696 0)
(-0.201881 -0.0852327 0)
(-0.199335 -0.10596 0)
(-0.195877 -0.12617 0)
(-0.191426 -0.145651 0)
(-0.185897 -0.164155 0)
(-0.17921 -0.181396 0)
(-0.171293 -0.197047 0)
(-0.162096 -0.210739 0)
(-0.151593 -0.222064 0)
(-0.139803 -0.230578 0)
(-0.126796 -0.235813 0)
(-0.112705 -0.237289 0)
(-0.0977424 -0.23453 0)
(-0.0822044 -0.227088 0)
(-0.0664791 -0.214571 0)
(-0.0510469 -0.196668 0)
(-0.0364751 -0.173178 0)
(-0.0233904 -0.14404 0)
(-0.0124467 -0.109345 0)
(-0.0044917 -0.0693525 0)
(-0.000695301 -0.0245141 0)
(-0.199534 0.000404358 0)
(-0.200116 -0.0214216 0)
(-0.20015 -0.0433528 0)
(-0.199591 -0.0652862 0)
(-0.198381 -0.0871023 0)
(-0.196444 -0.108659 0)
(-0.193691 -0.129784 0)
(-0.190022 -0.150274 0)
(-0.18533 -0.169882 0)
(-0.179506 -0.188317 0)
(-0.172447 -0.205239 0)
(-0.164065 -0.220257 0)
(-0.1543 -0.232928 0)
(-0.143129 -0.242763 0)
(-0.130585 -0.249231 0)
(-0.116772 -0.251777 0)
(-0.101878 -0.249841 0)
(-0.08619 -0.242879 0)
(-0.0701046 -0.230397 0)
(-0.0541294 -0.211987 0)
(-0.0388814 -0.187361 0)
(-0.0250569 -0.156387 0)
(-0.0133958 -0.119114 0)
(-0.00485855 -0.0757869 0)
(-0.000758293 -0.0268824 0)
(-0.19213 0.00127228 0)
(-0.192825 -0.0210191 0)
(-0.193124 -0.0434507 0)
(-0.192981 -0.0659382 0)
(-0.192333 -0.0883796 0)
(-0.191094 -0.110649 0)
(-0.189161 -0.132591 0)
(-0.186418 -0.154011 0)
(-0.182732 -0.174671 0)
(-0.177965 -0.194279 0)
(-0.171981 -0.212487 0)
(-0.16465 -0.228886 0)
(-0.155868 -0.243 0)
(-0.145566 -0.254292 0)
(-0.133731 -0.26217 0)
(-0.120424 -0.265996 0)
(-0.105799 -0.265112 0)
(-0.0901255 -0.258863 0)
(-0.073798 -0.246635 0)
(-0.0573485 -0.227898 0)
(-0.0414453 -0.202254 0)
(-0.0268621 -0.169478 0)
(-0.014438 -0.129557 0)
(-0.00526634 -0.0827137 0)
(-0.000829461 -0.0294489 0)
(-0.181698 0.00216414 0)
(-0.182489 -0.0204284 0)
(-0.183061 -0.0431965 0)
(-0.183368 -0.066077 0)
(-0.183341 -0.0889895 0)
(-0.182887 -0.111829 0)
(-0.181892 -0.134459 0)
(-0.180221 -0.156703 0)
(-0.177719 -0.178333 0)
(-0.174218 -0.199067 0)
(-0.169543 -0.218553 0)
(-0.163524 -0.236369 0)
(-0.156005 -0.252011 0)
(-0.146861 -0.264899 0)
(-0.136024 -0.274372 0)
(-0.123498 -0.279709 0)
(-0.109393 -0.28014 0)
(-0.0939413 -0.274881 0)
(-0.0775281 -0.263176 0)
(-0.0607022 -0.244347 0)
(-0.0441821 -0.217851 0)
(-0.0288266 -0.183344 0)
(-0.01559 -0.140725 0)
(-0.00572348 -0.0901822 0)
(-0.000910671 -0.032237 0)
(-0.167833 0.0030508 0)
(-0.1687 -0.0196558 0)
(-0.169548 -0.0425719 0)
(-0.170332 -0.0656586 0)
(-0.170979 -0.0888603 0)
(-0.171393 -0.112097 0)
(-0.171449 -0.135256 0)
(-0.170996 -0.158184 0)
(-0.169859 -0.180672 0)
(-0.16784 -0.202452 0)
(-0.164729 -0.223178 0)
(-0.160305 -0.242422 0)
(-0.15436 -0.259661 0)
(-0.146705 -0.274271 0)
(-0.137203 -0.285531 0)
(-0.125789 -0.292627 0)
(-0.112508 -0.294669 0)
(-0.097543 -0.290728 0)
(-0.08125 -0.279876 0)
(-0.0641835 -0.261253 0)
(-0.047109 -0.234134 0)
(-0.0309768 -0.198015 0)
(-0.0168741 -0.152679 0)
(-0.00624119 -0.0982513 0)
(-0.00100445 -0.0352753 0)
(-0.150108 0.00389878 0)
(-0.151027 -0.0187128 0)
(-0.152148 -0.0415652 0)
(-0.153427 -0.064646 0)
(-0.154794 -0.0879275 0)
(-0.156149 -0.111358 0)
(-0.157361 -0.134855 0)
(-0.158267 -0.158291 0)
(-0.158674 -0.181487 0)
(-0.158357 -0.204195 0)
(-0.15707 -0.226086 0)
(-0.154546 -0.246735 0)
(-0.150515 -0.265609 0)
(-0.14472 -0.282053 0)
(-0.136942 -0.295286 0)
(-0.127032 -0.304402 0)
(-0.114949 -0.308385 0)
(-0.100802 -0.30614 0)
(-0.0848979 -0.296539 0)
(-0.0677776 -0.278498 0)
(-0.0502448 -0.251064 0)
(-0.0333452 -0.21352 0)
(-0.0183193 -0.165484 0)
(-0.00683456 -0.106992 0)
(-0.00111427 -0.038599 0)
(-0.128081 0.00467134 0)
(-0.129022 -0.0176163 0)
(-0.130405 -0.040172 0)
(-0.13219 -0.0630116 0)
(-0.13431 -0.0861371 0)
(-0.136666 -0.109529 0)
(-0.139125 -0.133137 0)
(-0.141517 -0.15687 0)
(-0.143635 -0.18058 0)
(-0.145234 -0.204054 0)
(-0.146034 -0.226987 0)
(-0.145724 -0.248974 0)
(-0.143972 -0.269483 0)
(-0.140446 -0.28784 0)
(-0.134836 -0.303216 0)
(-0.126888 -0.314618 0)
(-0.116454 -0.320898 0)
(-0.103541 -0.320779 0)
(-0.0883744 -0.312903 0)
(-0.0714555 -0.295916 0)
(-0.0536083 -0.268573 0)
(-0.035973 -0.229878 0)
(-0.0199638 -0.179218 0)
(-0.00752422 -0.116492 0)
(-0.00124502 -0.042253 0)
(-0.101297 0.00533013 0)
(-0.102229 -0.0163885 0)
(-0.103856 -0.0383971 0)
(-0.106146 -0.0607401 0)
(-0.109036 -0.0834504 0)
(-0.112434 -0.106542 0)
(-0.116208 -0.130003 0)
(-0.12019 -0.153779 0)
(-0.124167 -0.177767 0)
(-0.127878 -0.201793 0)
(-0.131018 -0.225593 0)
(-0.133236 -0.248793 0)
(-0.134142 -0.270882 0)
(-0.133326 -0.291184 0)
(-0.130377 -0.308839 0)
(-0.124921 -0.32278 0)
(-0.116676 -0.331729 0)
(-0.105512 -0.334217 0)
(-0.0915344 -0.328626 0)
(-0.0751638 -0.313275 0)
(-0.0572143 -0.286554 0)
(-0.0389103 -0.247097 0)
(-0.0218589 -0.193969 0)
(-0.00833888 -0.126859 0)
(-0.00140373 -0.0462948 0)
(-0.0693003 0.00583745 0)
(-0.0701914 -0.0150564 0)
(-0.0720382 -0.0362551 0)
(-0.0748168 -0.057831 0)
(-0.0784754 -0.0798481 0)
(-0.08293 -0.102355 0)
(-0.0880602 -0.125379 0)
(-0.0937038 -0.148909 0)
(-0.0996508 -0.17289 0)
(-0.105638 -0.197199 0)
(-0.111344 -0.221625 0)
(-0.116387 -0.245845 0)
(-0.120328 -0.269387 0)
(-0.12268 -0.2916 0)
(-0.122927 -0.311614 0)
(-0.120564 -0.328312 0)
(-0.115146 -0.340301 0)
(-0.106366 -0.345915 0)
(-0.0941584 -0.343251 0)
(-0.0788068 -0.330247 0)
(-0.0610659 -0.304836 0)
(-0.042217 -0.26516 0)
(-0.0240728 -0.209835 0)
(-0.00931913 -0.138231 0)
(-0.00160081 -0.0508005 0)
(-0.0316433 0.00615907 0)
(-0.032462 -0.01365 0)
(-0.0344973 -0.0337709 0)
(-0.0377353 -0.0543018 0)
(-0.0421368 -0.0753359 0)
(-0.047633 -0.096956 0)
(-0.0541198 -0.119227 0)
(-0.0614516 -0.142186 0)
(-0.0694325 -0.16583 0)
(-0.0778083 -0.190096 0)
(-0.0862573 -0.214839 0)
(-0.0943829 -0.239803 0)
(-0.101709 -0.264582 0)
(-0.107685 -0.288576 0)
(-0.111693 -0.310945 0)
(-0.113084 -0.330552 0)
(-0.111231 -0.345917 0)
(-0.105609 -0.355196 0)
(-0.0959133 -0.356182 0)
(-0.0822174 -0.346377 0)
(-0.0651389 -0.323153 0)
(-0.0459607 -0.284009 0)
(-0.0266968 -0.226926 0)
(-0.0105236 -0.150784 0)
(-0.00185221 -0.0558726 0)
(0.0121004 0.0062677 0)
(0.011381 -0.0122014 0)
(0.00919422 -0.0309806 0)
(0.00554265 -0.0501902 0)
(0.000449937 -0.069949 0)
(-0.00603497 -0.0903707 0)
(-0.0138317 -0.111558 0)
(-0.0228205 -0.133594 0)
(-0.0328326 -0.15653 0)
(-0.0436384 -0.180369 0)
(-0.0549344 -0.205045 0)
(-0.0663298 -0.230386 0)
(-0.0773347 -0.256076 0)
(-0.0873522 -0.281606 0)
(-0.0956804 -0.306202 0)
(-0.101532 -0.328759 0)
(-0.104078 -0.347762 0)
(-0.102533 -0.36122 0)
(-0.0962901 -0.366633 0)
(-0.0851071 -0.361028 0)
(-0.0693514 -0.3411 0)
(-0.050208 -0.303511 0)
(-0.0298522 -0.24535 0)
(-0.0120385 -0.164742 0)
(-0.00218319 -0.0616531 0)
(0.0623199 0.00614664 0)
(0.06172 -0.0107426 0)
(0.0594232 -0.0279312 0)
(0.0554206 -0.0455561 0)
(0.0497178 -0.0637567 0)
(0.0423397 -0.0826725 0)
(0.0333364 -0.102439 0)
(0.022792 -0.123183 0)
(0.0108354 -0.145009 0)
(-0.00234574 -0.16799 0)
(-0.0164883 -0.192142 0)
(-0.0312341 -0.217394 0)
(-0.0461094 -0.243549 0)
(-0.060505 -0.270218 0)
(-0.0736635 -0.29675 0)
(-0.0846794 -0.322135 0)
(-0.0925275 -0.344894 0)
(-0.0961333 -0.362961 0)
(-0.0945101 -0.373589 0)
(-0.0869835 -0.373315 0)
(-0.073508 -0.358054 0)
(-0.0550026 -0.323401 0)
(-0.0336968 -0.265197 0)
(-0.0139938 -0.180398 0)
(-0.00263554 -0.0683444 0)
(0.11935 0.00579362 0)
(0.11888 -0.00930329 0)
(0.116518 -0.0246799 0)
(0.112243 -0.0404833 0)
(0.106043 -0.0568665 0)
(0.0979141 -0.0739875 0)
(0.0878718 -0.0920081 0)
(0.0759558 -0.11109 0)
(0.0622429 -0.131388 0)
(0.0468612 -0.153041 0)
(0.0300099 -0.176151 0)
(0.0119837 -0.200756 0)
(-0.00679862 -0.226794 0)
(-0.0257614 -0.254036 0)
(-0.0441406 -0.282007 0)
(-0.0609593 -0.30987 0)
(-0.0750258 -0.336278 0)
(-0.0849747 -0.359202 0)
(-0.0893842 -0.37575 0)
(-0.0870142 -0.382016 0)
(-0.0771944 -0.373068 0)
(-0.0603128 -0.343187 0)
(-0.0384248 -0.286491 0)
(-0.0165878 -0.198125 0)
(-0.00328087 -0.0762449 0)
(0.183453 0.005224 0)
(0.18311 -0.00790857 0)
(0.180728 -0.0212933 0)
(0.176277 -0.0350798 0)
(0.169724 -0.0494261 0)
(0.161036 -0.0644999 0)
(0.150192 -0.0804792 0)
(0.13718 -0.0975515 0)
(0.122016 -0.115911 0)
(0.104752 -0.135753 0)
(0.0855016 -0.157258 0)
(0.0644629 -0.180578 0)
(0.0419558 -0.205792 0)
(0.0184649 -0.232859 0)
(-0.00530866 -0.261528 0)
(-0.0283937 -0.291219 0)
(-0.049505 -0.320838 0)
(-0.0670327 -0.348552 0)
(-0.0791068 -0.371495 0)
(-0.0838061 -0.385467 0)
(-0.0795846 -0.384716 0)
(-0.0659123 -0.361986 0)
(-0.0442432 -0.309089 0)
(-0.0201237 -0.218385 0)
(-0.00424544 -0.0858098 0)
(0.254792 0.00447306 0)
(0.25456 -0.00657756 0)
(0.252207 -0.0178464 0)
(0.24769 -0.0294773 0)
(0.240958 -0.0416245 0)
(0.231955 -0.0544548 0)
(0.220617 -0.0681509 0)
(0.206882 -0.0829126 0)
(0.190699 -0.0989585 0)
(0.172034 -0.116524 0)
(0.150896 -0.135857 0)
(0.127358 -0.157203 0)
(0.101597 -0.180785 0)
(0.073941 -0.206755 0)
(0.0449425 -0.235123 0)
(0.0154562 -0.265636 0)
(-0.0132652 -0.297586 0)
(-0.0394882 -0.329529 0)
(-0.0609672 -0.35889 0)
(-0.0750575 -0.38146 0)
(-0.0790949 -0.39087 0)
(-0.0711247 -0.37825 0)
(-0.0512772 -0.332468 0)
(-0.0250538 -0.241701 0)
(-0.00575427 -0.0977576 0)
(0.333415 0.00359629 0)
(0.333267 -0.0053226 0)
(0.330988 -0.0144214 0)
(0.326529 -0.0238304 0)
(0.319825 -0.0336908 0)
(0.310795 -0.0441581 0)
(0.299342 -0.0554066 0)
(0.285354 -0.0676333 0)
(0.268714 -0.0810626 0)
(0.249302 -0.0959492 0)
(0.227012 -0.11258 0)
(0.201773 -0.131273 0)
(0.173581 -0.152366 0)
(0.142552 -0.176189 0)
(0.108991 -0.203018 0)
(0.0735025 -0.232969 0)
(0.0371243 -0.265829 0)
(0.0014972 -0.300753 0)
(-0.0309701 -0.335794 0)
(-0.0570286 -0.367195 0)
(-0.0727765 -0.388457 0)
(-0.074289 -0.389345 0)
(-0.0592896 -0.355311 0)
(-0.0319936 -0.268516 0)
(-0.00819945 -0.113239 0)
(0.41923 0.00266714 0)
(0.419129 -0.00415037 0)
(0.416972 -0.0111076 0)
(0.412709 -0.0183146 0)
(0.406264 -0.0258913 0)
(0.397539 -0.0339724 0)
(0.386411 -0.0427115 0)
(0.372729 -0.052287 0)
(0.356318 -0.0629088 0)
(0.336981 -0.074825 0)
(0.314504 -0.0883304 0)
(0.288668 -0.103774 0)
(0.259275 -0.121562 0)
(0.226182 -0.142157 0)
(0.189372 -0.166055 0)
(0.149059 -0.193732 0)
(0.105847 -0.225514 0)
(0.0609707 -0.261321 0)
(0.0166058 -0.300189 0)
(-0.0237941 -0.339429 0)
(-0.0552983 -0.373274 0)
(-0.0716798 -0.39098 0)
(-0.0669171 -0.374732 0)
(-0.041538 -0.298744 0)
(-0.0121938 -0.134044 0)
(0.511987 0.0017713 0)
(0.511891 -0.00306517 0)
(0.509909 -0.00800203 0)
(0.505991 -0.0131241 0)
(0.500058 -0.0185247 0)
(0.492005 -0.0243098 0)
(0.481693 -0.0306025 0)
(0.468948 -0.0375488 0)
(0.453558 -0.0453251 0)
(0.435268 -0.054147 0)
(0.41378 -0.0642813 0)
(0.38875 -0.0760597 0)
(0.359799 -0.0898958 0)
(0.326529 -0.106302 0)
(0.288565 -0.125905 0)
(0.24563 -0.14944 0)
(0.197693 -0.177707 0)
(0.145222 -0.211424 0)
(0.0895886 -0.250857 0)
(0.0336783 -0.295026 0)
(-0.0173682 -0.340106 0)
(-0.0554277 -0.376575 0)
(-0.069734 -0.384939 0)
(-0.0532989 -0.330655 0)