/*--------------------------------*- C++ -*----------------------------------*\
| =========                 |                                                 |
| \\      /  F ield         | OpenFOAM: The Open Source CFD Toolbox           |
|  \\    /   O peration     | Version:  v2012                                 |
|   \\  /    A nd           | Website:  www.openfoam.com                      |
|    \\/     M anipulation  |                                                 |
\*---------------------------------------------------------------------------*/
FoamFile
{
    version     2.0;
    format      ascii;
    class       volScalarField;
    location    "0.05";
    object      p;
}
// * * * * * * * * * * * * * * * * * * * * * * * * * * * * * * * * * * * * * //

dimensions      [0 2 -2 0 0 0 0];


internalField   nonuniform List<scalar> 
2500
(
-2.69813e-08
-0.000539944
-0.00211744
-0.00445311
-0.0071745
-0.00998795
-0.0126662
-0.0150329
-0.0169556
-0.0183376
-0.0191117
-0.0192349
-0.0186846
-0.0174552
-0.0155549
-0.0130043
-0.00983424
-0.00608475
-0.00180345
0.00295553
0.0081324
0.0136624
0.0194763
0.0255016
0.0316624
0.0378795
0.0440719
0.0501588
0.05606
0.0616967
0.0669921
0.0718728
0.0762697
0.0801201
0.0833686
0.0859691
0.0878865
0.0890983
0.0895969
0.0893917
0.0885118
0.0870092
0.0849622
0.0824793
0.0797053
0.0768273
0.0740806
0.0717605
0.0702355
0.0697517
0.000511336
-2.50533e-05
-0.00132521
-0.0031856
-0.0053402
-0.00757394
-0.00970727
-0.0115925
-0.0131131
-0.0141802
-0.0147297
-0.014718
-0.01412
-0.0129258
-0.0111392
-0.00877492
-0.00585807
-0.00242241
0.0014908
0.00583394
0.0105538
0.0155921
0.0208865
0.0263712
0.0319776
0.0376342
0.0432671
0.0488034
0.0541708
0.0592985
0.0641175
0.0685622
0.0725717
0.0760911
0.0790729
0.0814781
0.0832783
0.0844572
0.0850118
0.084955
0.0843175
0.0831502
0.0815264
0.0795446
0.0773311
0.0750419
0.0728628
0.071011
0.0697483
0.0692685
0.00204902
0.00124406
-6.03948e-05
-0.00173603
-0.00361551
-0.00553455
-0.00734939
-0.0089386
-0.0102028
-0.0110641
-0.0114642
-0.0113625
-0.0107342
-0.00956846
-0.00786655
-0.00564028
-0.0029109
0.000292054
0.00393186
0.00796563
0.0123451
0.017017
0.021924
0.027006
0.0322002
0.0374403
0.0426584
0.0477869
0.0527598
0.0575122
0.0619809
0.0661062
0.0698327
0.0731111
0.0758989
0.0781621
0.0798762
0.0810281
0.0816173
0.0816573
0.0811777
0.0802256
0.0788676
0.07719
0.0753009
0.0733293
0.0714242
0.0697523
0.0684835
0.0677476
0.00437473
0.00308871
0.001572
-0.000128347
-0.00193937
-0.00373356
-0.00539471
-0.00682491
-0.0079421
-0.00868036
-0.00898941
-0.00883355
-0.00819064
-0.00705084
-0.00541504
-0.00329365
-0.000705769
0.0023218
0.00575549
0.00955585
0.0136783
0.0180734
0.022688
0.0274663
0.0323502
0.0372776
0.0421846
0.0470081
0.0516867
0.0561602
0.0603695
0.064259
0.0677774
0.070879
0.0735245
0.0756827
0.0773314
0.0784587
0.0790644
0.0791607
0.0787743
0.0779472
0.0767372
0.0752188
0.0734825
0.0716337
0.0697944
0.0680955
0.0666181
0.0654139
0.00715425
0.00527281
0.00342986
0.00159001
-0.000266008
-0.00204075
-0.00364118
-0.00499105
-0.00602507
-0.00668953
-0.00694293
-0.00675562
-0.00610928
-0.00499617
-0.00341796
-0.00138471
0.00108576
0.0039685
0.00723221
0.0108402
0.0147508
0.0189179
0.023292
0.0278209
0.0324502
0.0371217
0.0417747
0.0463497
0.0507895
0.0550372
0.0590374
0.0627375
0.0660892
0.0690493
0.0715808
0.0736542
0.0752481
0.0763509
0.0769613
0.0770893
0.0767576
0.076002
0.0748718
0.0734292
0.0717482
0.0699134
0.0680242
0.0661831
0.0643831
0.0625971
0.0101308
0.0076066
0.00536918
0.00330986
0.00132483
-0.000511854
-0.00212598
-0.00346023
-0.00446473
-0.00509753
-0.00532596
-0.0051269
-0.00448661
-0.00340025
-0.00187101
9.05995e-05
0.00246713
0.00523469
0.00836361
0.0118192
0.0155622
0.0195492
0.0237332
0.0280656
0.0324951
0.0369661
0.0414209
0.0458028
0.0500576
0.0541315
0.0579715
0.0615274
0.0647527
0.0676059
0.0700513
0.0720599
0.0736103
0.0746902
0.0752961
0.0754353
0.0751258
0.0743969
0.0732893
0.0718539
0.07015
0.0682442
0.0662184
0.0641532
0.0619607
0.0595434
0.0131118
0.00993332
0.00726241
0.0049279
0.00275126
0.000789366
-0.000898098
-0.00226989
-0.00328963
-0.00392616
-0.00415546
-0.003961
-0.00333386
-0.00227263
-0.000782665
0.00112439
0.00343082
0.00611315
0.00914263
0.0124859
0.0161056
0.0199602
0.024005
0.0281937
0.0324778
0.036804
0.0411162
0.0453601
0.0494839
0.0534358
0.0571646
0.0606215
0.0637612
0.0665427
0.0689307
0.0708958
0.0724158
0.0734766
0.0740724
0.0742067
0.0738925
0.073153
0.0720205
0.070536
0.0687461
0.0667025
0.0644741
0.0621263
0.0594996
0.0564369
0.0159495
0.0121225
0.00899843
0.0063527
0.00394099
0.00180801
2.71186e-06
-0.00144696
-0.00251634
-0.00318395
-0.00343374
-0.00325557
-0.00264551
-0.00160583
-0.000144415
0.00172548
0.00398533
0.00661148
0.00957557
0.0128451
0.0163838
0.0201517
0.0241055
0.0282011
0.0323918
0.0366259
0.0408488
0.0450074
0.0490518
0.0529316
0.0565964
0.0599982
0.0630917
0.0658362
0.0681956
0.0701395
0.071644
0.0726927
0.0732767
0.0733955
0.0730573
0.0722789
0.0710853
0.0695085
0.0675847
0.0653538
0.0628757
0.0602057
0.057122
0.0534161
0.0185297
0.0140662
0.0104803
0.00750061
0.00482435
0.00248794
0.000532616
-0.00102456
-0.00216884
-0.00288732
-0.00317122
-0.00301646
-0.00242399
-0.00139983
4.53128e-05
0.00189623
0.00413317
0.00673187
0.00966387
0.0128971
0.0163958
0.0201209
0.0240305
0.0280815
0.0322289
0.0364219
0.0406065
0.0447309
0.048746
0.052602
0.056249
0.0596387
0.0627256
0.0654679
0.0678284
0.069775
0.0712814
0.0723282
0.0729033
0.0730018
0.072627
0.0717897
0.0705085
0.0688076
0.0667146
0.0642603
0.061499
0.05848
0.0549264
0.0505856
0.0207619
0.0156741
0.0116228
0.00829485
0.00533412
0.00277178
0.000643726
-0.00104181
-0.00227859
-0.00306116
-0.00338732
-0.00325863
-0.00268073
-0.00166341
-0.00022034
0.00163106
0.00386949
0.00646974
0.00940287
0.0126367
0.0161357
0.0198613
0.0237721
0.0278261
0.0319789
0.0361806
0.0403773
0.0445175
0.0485525
0.0524327
0.0561078
0.0595287
0.0626489
0.0654251
0.0678182
0.0697936
0.0713222
0.0723814
0.072955
0.0730339
0.0726164
0.0717079
0.0703207
0.0684729
0.0661851
0.0634812
0.0604125
0.0570255
0.0529936
0.0480248
0.0225715
0.0168681
0.0123498
0.00866413
0.00540553
0.00260201
0.000285923
-0.00154179
-0.00288213
-0.00373621
-0.00410773
-0.0040035
-0.00343363
-0.00241167
-0.000954322
0.000918611
0.00318405
0.00581551
0.00878325
0.0120546
0.015594
0.0193627
0.0233199
0.0274237
0.0316303
0.0358899
0.0401482
0.044354
0.0484581
0.0524106
0.0561601
0.0596563
0.0628511
0.065699
0.0681583
0.0701915
0.0717662
0.072856
0.0734404
0.0735058
0.0730456
0.0720601
0.070556
0.0685462
0.0660455
0.0630729
0.0596786
0.0559091
0.0513914
0.0457967
0.0238936
0.0175786
0.0125912
0.00854105
0.00497549
0.00192077
-0.000592943
-0.0025709
-0.00402035
-0.0049482
-0.00536357
-0.00527813
-0.00470631
-0.00366535
-0.00217503
-0.000257667
0.00206166
0.00475496
0.00779142
0.0111376
0.0147575
0.0186122
0.0226606
0.0268609
0.0311694
0.0355359
0.0399057
0.0442269
0.0484497
0.0525232
0.0563945
0.0600116
0.063324
0.0662837
0.0688457
0.0709691
0.0726176
0.0737605
0.0743729
0.0744364
0.0739394
0.0728772
0.0712517
0.0690708
0.0663453
0.06309
0.059356
0.0551914
0.0501788
0.0439543
0.0246688
0.0177408
0.0122805
0.00786041
0.00398153
0.000669398
-0.00204716
-0.00417872
-0.0057381
-0.00673746
-0.00719091
-0.00711478
-0.00652765
-0.00545042
-0.00390598
-0.00191932
0.000482352
0.00326936
0.00640957
0.00986861
0.0136097
0.0175934
0.021778
0.0261218
0.0305805
0.0351034
0.0396348
0.0441219
0.0485139
0.0527583
0.0568004
0.0605859
0.0640614
0.0671757
0.0698802
0.0721299
0.0738842
0.0751076
0.0757703
0.0758489
0.0753266
0.0741939
0.072448
0.0700928
0.067135
0.063587
0.0595017
0.0549298
0.0494105
0.0425447
0.0248397
0.0172921
0.011353
0.00655761
0.00236073
-0.00121233
-0.00413348
-0.0064181
-0.00808413
-0.00914866
-0.00963054
-0.00955057
-0.00893146
-0.00779775
-0.00617554
-0.00409254
-0.00157826
0.0013358
0.00461603
0.00822686
0.0121306
0.0162869
0.0206535
0.025188
0.0298458
0.0345752
0.0393192
0.0440237
0.0486366
0.0531035
0.0573675
0.0613712
0.0650582
0.0683735
0.0712642
0.0736807
0.0755774
0.0769137
0.0776544
0.0777706
0.0772403
0.0760488
0.074189
0.0716607
0.0684676
0.0646197
0.0601726
0.0551809
0.0491396
0.0416138
0.0243484
0.0161693
0.00974308
0.00456684
4.82948e-05
-0.00378713
-0.00691177
-0.00934552
-0.0111113
-0.0122308
-0.0127277
-0.0126273
-0.0119562
-0.0107428
-0.00901652
-0.00680782
-0.00414863
-0.00107247
0.00238546
0.00618823
0.0102969
0.0146704
0.0192655
0.024039
0.0289455
0.0339322
0.0389409
0.0439158
0.0488031
0.0535463
0.0580856
0.0623604
0.0663107
0.069877
0.0730018
0.0756304
0.0777114
0.0791986
0.0800506
0.0802329
0.0797176
0.0784848
0.0765228
0.0738273
0.0703991
0.0662464
0.061428
0.056003
0.0494206
0.0412088
0.0231343
0.0143071
0.00738294
0.0018197
-0.00302351
-0.00712107
-0.0104456
-0.0130214
-0.0148765
-0.0160374
-0.0165323
-0.0163911
-0.0156448
-0.0143254
-0.0124659
-0.0100996
-0.007261
-0.00398575
-0.000310813
0.0037254
0.00808275
0.012719
0.01759
0.0226517
0.0278576
0.0331537
0.0384805
0.0437804
0.0489977
0.0540732
0.0589441
0.0635462
0.0678153
0.0716871
0.075099
0.07799
0.080303
0.0819849
0.082988
0.083271
0.0828
0.0815492
0.0795018
0.0766496
0.0729901
0.0685298
0.0633312
0.0574582
0.0503117
0.0413809
0.0211325
0.0116361
0.00420101
-0.001756
-0.00692632
-0.0112842
-0.0148026
-0.0175106
-0.0194412
-0.020626
-0.0210983
-0.0208925
-0.0200441
-0.0185893
-0.0165643
-0.0140058
-0.0109509
-0.00743751
-0.00350447
0.000808263
0.00545923
0.010405
0.0156005
0.0210007
0.0265579
0.032217
0.0379169
0.0435984
0.0492033
0.0546699
0.0599318
0.064921
0.0695687
0.0738054
0.0775624
0.0807724
0.0833712
0.0852984
0.086499
0.0869243
0.0865334
0.0852941
0.0831839
0.0801901
0.0763066
0.0715381
0.065951
0.0596142
0.0518771
0.0421874
0.0182725
0.00808197
0.000120797
-0.00623728
-0.0117366
-0.0163514
-0.0200553
-0.0228824
-0.0248714
-0.0260591
-0.026484
-0.0261859
-0.025205
-0.0235815
-0.0213556
-0.0185674
-0.0152567
-0.0114638
-0.00722957
-0.00259553
0.00239551
0.00769898
0.0132688
0.0190588
0.0250205
0.0310974
0.0372272
0.0433487
0.0494014
0.0553204
0.0610362
0.0664764
0.0715672
0.0762333
0.0803995
0.0839912
0.0869365
0.089167
0.090619
0.0912357
0.0909682
0.0897768
0.0876326
0.0845176
0.0804216
0.0753468
0.0693637
0.062546
0.0541883
0.0436935
0.0144771
0.00356388
-0.00494045
-0.0117072
-0.0175366
-0.0224033
-0.0262816
-0.0292116
-0.0312378
-0.0324032
-0.0327522
-0.0323298
-0.0311816
-0.0293524
-0.0268866
-0.0238277
-0.0202188
-0.0161026
-0.0115219
-0.0065199
-0.00114075
0.0045699
0.0105651
0.0167977
0.0232182
0.0297692
0.0363871
0.0430089
0.0495718
0.0560079
0.062244
0.0682032
0.0738065
0.0789722
0.083618
0.0876614
0.0910216
0.0936212
0.095387
0.0962527
0.0961601
0.0950608
0.0929183
0.0897083
0.0854158
0.0800398
0.0736543
0.0663384
0.0573268
0.0459746
0.00966124
-0.00200678
-0.011073
-0.0182563
-0.0244158
-0.0295271
-0.0335659
-0.0365787
-0.0386169
-0.0397302
-0.0399695
-0.0393861
-0.0380312
-0.0359549
-0.033206
-0.0298321
-0.0258793
-0.021393
-0.0164182
-0.0109995
-0.00518257
0.000986152
0.00745891
0.0141879
0.0211227
0.0282054
0.0353712
0.0425556
0.0496936
0.0567143
0.0635407
0.0700914
0.0762817
0.0820233
0.0872259
0.0917984
0.0956504
0.0986939
0.100845
0.102027
0.10217
0.101216
0.0991188
0.0958472
0.0913796
0.0857111
0.0789189
0.0710869
0.0613855
0.0491178
0.0037308
-0.00872755
-0.018376
-0.0259835
-0.0324717
-0.0378178
-0.0419995
-0.0450706
-0.0470904
-0.0481164
-0.0482067
-0.0474199
-0.0458136
-0.0434437
-0.040364
-0.0366263
-0.0322803
-0.0273742
-0.0219549
-0.0160689
-0.00976271
-0.00308362
0.00392016
0.0112003
0.018706
0.0263789
0.0341537
0.0419649
0.049745
0.0574206
0.0649108
0.0721299
0.0789871
0.085387
0.0912309
0.0964183
0.100848
0.10442
0.107039
0.108614
0.109064
0.108318
0.10632
0.103029
0.0984144
0.0924668
0.0852662
0.0769009
0.066471
0.053224
-0.00341834
-0.0167061
-0.0269587
-0.0349977
-0.0418114
-0.0473792
-0.0516816
-0.0547811
-0.0567461
-0.0576429
-0.0575384
-0.0564993
-0.0545905
-0.0518746
-0.0484109
-0.044256
-0.0394634
-0.0340842
-0.0281675
-0.021761
-0.0149124
-0.00766931
-8.00752e-05
0.00780686
0.0159406
0.0242633
0.0327094
0.0412127
0.049704
0.0581073
0.0663384
0.0743069
0.081916
0.0890632
0.0956407
0.101537
0.10664
0.110837
0.114017
0.116075
0.116916
0.116454
0.114619
0.111359
0.106634
0.100427
0.0928201
0.0839053
0.0727063
0.0584105
-0.0119015
-0.0260619
-0.036942
-0.045419
-0.0525525
-0.0583248
-0.0627202
-0.0658113
-0.0676776
-0.0683956
-0.0680423
-0.0666941
-0.0644244
-0.0613032
-0.0573962
-0.0527652
-0.047468
-0.0415585
-0.0350881
-0.0281058
-0.0206598
-0.0127978
-0.00456786
0.00398212
0.0128018
0.0218339
0.0310142
0.040276
0.049549
0.0587549
0.0678068
0.0766098
0.0850613
0.0930512
0.100462
0.107172
0.113056
0.117984
0.121832
0.124477
0.125806
0.125717
0.124123
0.120957
0.116168
0.109729
0.101722
0.0922434
0.080233
0.0648131
-0.0218467
-0.0369275
-0.0484603
-0.057381
-0.0648252
-0.0707792
-0.0752328
-0.0782706
-0.0799849
-0.0804647
-0.0797991
-0.0780756
-0.0753775
-0.0717835
-0.0673666
-0.0621945
-0.0563292
-0.049828
-0.0427443
-0.0351283
-0.0270281
-0.0184912
-0.00956465
-0.000295181
0.00926811
0.0190695
0.0290469
0.0391339
0.0492596
0.0593446
0.0692995
0.0790258
0.0884151
0.0973498
0.105703
0.11334
0.120121
0.125903
0.130539
0.13389
0.135822
0.13621
0.13495
0.131957
0.127162
0.120527
0.112134
0.10208
0.0892146
0.0725892
-0.0333964
-0.0494515
-0.0616641
-0.0710325
-0.0787739
-0.0848801
-0.089348
-0.0922769
-0.0937745
-0.0939449
-0.0928915
-0.0907149
-0.0875104
-0.0833665
-0.0783646
-0.0725787
-0.0660758
-0.0589167
-0.0511563
-0.0428458
-0.0340331
-0.0247644
-0.015085
-0.00503992
0.00532411
0.0159539
0.0267902
0.0377683
0.0488179
0.0598592
0.0708013
0.0815425
0.0919696
0.101957
0.111369
0.120058
0.127867
0.134636
0.1402
0.144393
0.147059
0.14805
0.147235
0.144508
0.139782
0.133
0.124242
0.113606
0.0998403
0.081921
-0.0467104
-0.0638009
-0.0767231
-0.0865409
-0.0945602
-0.10078
-0.105207
-0.107958
-0.10916
-0.108934
-0.107403
-0.104682
-0.10088
-0.0960975
-0.0904252
-0.0839445
-0.0767276
-0.0688386
-0.0603342
-0.0512658
-0.0416804
-0.0316224
-0.0211344
-0.0102583
0.00096204
0.0124776
0.0242329
0.0361667
0.0482101
0.0602844
0.0722986
0.0841487
0.0957173
0.106872
0.117467
0.127341
0.136323
0.144231
0.150876
0.156069
0.159623
0.161362
0.161127
0.158783
0.154216
0.147351
0.138261
0.127041
0.112328
0.0930192
-0.0619683
-0.0801651
-0.0938296
-0.104096
-0.112366
-0.118649
-0.122964
-0.125451
-0.12626
-0.125534
-0.123417
-0.120043
-0.115537
-0.110013
-0.103574
-0.0963071
-0.0882917
-0.0795948
-0.0702746
-0.0603821
-0.0499626
-0.0390576
-0.0277059
-0.0159455
-0.0038155
0.00864029
0.021372
0.0343229
0.0474279
0.0606105
0.0737809
0.0868348
0.0996514
0.112093
0.124002
0.135208
0.145519
0.154732
0.162635
0.169006
0.173628
0.176288
0.176792
0.174971
0.170679
0.163814
0.154436
0.142637
0.126932
0.106128
-0.079374
-0.0987607
-0.113204
-0.123913
-0.132397
-0.138677
-0.142792
-0.144907
-0.145201
-0.143848
-0.141014
-0.136857
-0.131522
-0.125139
-0.117821
-0.109666
-0.100759
-0.0911695
-0.0809571
-0.0701716
-0.0588555
-0.0470463
-0.0347778
-0.0220823
-0.00899302
0.00445339
0.0182144
0.0322399
0.0464701
0.060833
0.075242
0.0895938
0.103766
0.117617
0.130981
0.143672
0.155483
0.166188
0.175544
0.183299
0.189195
0.19298
0.194415
0.193288
0.189414
0.182654
0.173052
0.16069
0.143945
0.12153
-0.099161
-0.119838
-0.135101
-0.146242
-0.154888
-0.161079
-0.164877
-0.166484
-0.166115
-0.163976
-0.160268
-0.155174
-0.148863
-0.141482
-0.133159
-0.124001
-0.114099
-0.103526
-0.0923403
-0.0805906
-0.0683152
-0.055546
-0.0423102
-0.0286329
-0.0145396
-5.77121e-05
0.0147797
0.0299313
0.0453448
0.060955
0.0766807
0.0924221
0.108058
0.123443
0.138405
0.152747
0.166243
0.178643
0.189675
0.199046
0.206457
0.211606
0.214202
0.21398
0.210701
0.204183
0.194441
0.181542
0.163711
0.139555
-0.1216
-0.143689
-0.15982
-0.171371
-0.180108
-0.186097
-0.18943
-0.190356
-0.189136
-0.18602
-0.181245
-0.17503
-0.167569
-0.15903
-0.149557
-0.139268
-0.128257
-0.116601
-0.104358
-0.0915711
-0.0782743
-0.0644918
-0.0502425
-0.0355422
-0.0204062
-0.00485106
0.0111023
0.0274236
0.0440707
0.0609877
0.0781019
0.09532
0.112524
0.129569
0.146278
0.162443
0.177823
0.192142
0.205095
0.216349
0.225553
0.232348
0.236381
0.237319
0.234859
0.228755
0.218989
0.205599
0.186635
0.160591
-0.147009
-0.17066
-0.187712
-0.199642
-0.208372
-0.214007
-0.216683
-0.216707
-0.214402
-0.21007
-0.203996
-0.196439
-0.187624
-0.177743
-0.166956
-0.155391
-0.143148
-0.130304
-0.116914
-0.103017
-0.0886387
-0.0737938
-0.0584903
-0.0427326
-0.0265238
-0.00986641
0.00723272
0.0247573
0.0426781
0.0609519
0.0795176
0.0982918
0.117164
0.135991
0.154598
0.172767
0.190241
0.206723
0.221871
0.235309
0.246629
0.255404
0.261204
0.263617
0.262253
0.256788
0.24715
0.233336
0.213196
0.185095
-0.175768
-0.201169
-0.219202
-0.231458
-0.240047
-0.245125
-0.246892
-0.245734
-0.242048
-0.236206
-0.228552
-0.219389
-0.208981
-0.197545
-0.185258
-0.172258
-0.158649
-0.144506
-0.12988
-0.114801
-0.0992846
-0.0833339
-0.0669432
-0.0501029
-0.032801
-0.0150239
0.00323888
0.0219877
0.0412098
0.0608778
0.0809463
0.101346
0.121977
0.142706
0.163358
0.183715
0.203507
0.222414
0.240062
0.256025
0.269833
0.280981
0.288949
0.293222
0.293304
0.288768
0.27946
0.265323
0.243966
0.21361
-0.208338
-0.235725
-0.254807
-0.267306
-0.275564
-0.279814
-0.280342
-0.27764
-0.272203
-0.264489
-0.254912
-0.243832
-0.231552
-0.218318
-0.204323
-0.189714
-0.174596
-0.15904
-0.143088
-0.126759
-0.110056
-0.0929642
-0.0754635
-0.0575267
-0.0391243
-0.0202235
-0.000793784
0.0191853
0.0397207
0.060805
0.0824125
0.104492
0.126962
0.149701
0.172544
0.195274
0.217616
0.239231
0.259713
0.278585
0.295311
0.309298
0.319916
0.326526
0.328497
0.325262
0.316561
0.302245
0.279636
0.24679
-0.24529
-0.274963
-0.295165
-0.307779
-0.31544
-0.318492
-0.317347
-0.312635
-0.30498
-0.294946
-0.283034
-0.269668
-0.255194
-0.239888
-0.223958
-0.207555
-0.19078
-0.173696
-0.156332
-0.138693
-0.120761
-0.102506
-0.0838853
-0.0648529
-0.0453581
-0.0253462
-0.00476346
0.0164339
0.0382762
0.0607801
0.0839443
0.107742
0.132113
0.156958
0.182127
0.207414
0.232544
0.257166
0.280845
0.30306
0.3232
0.340573
0.354425
0.363964
0.368386
0.366942
0.359218
0.344932
0.321049
0.285429
-0.287345
-0.319686
-0.341078
-0.353607
-0.360291
-0.361641
-0.358245
-0.350923
-0.340462
-0.327561
-0.31282
-0.296736
-0.279702
-0.26202
-0.243908
-0.225515
-0.206935
-0.188213
-0.169361
-0.150362
-0.131176
-0.11175
-0.0920171
-0.0719078
-0.0513475
-0.0302565
-0.00855474
0.0138281
0.0369494
0.0608543
0.0855706
0.111101
0.137416
0.164444
0.19206
0.220078
0.248233
0.276175
0.303447
0.329486
0.353608
0.375015
0.392809
0.406014
0.413606
0.414599
0.408358
0.394405
0.369249
0.330503
-0.33543
-0.370932
-0.393566
-0.405697
-0.410858
-0.409811
-0.403398
-0.39269
-0.378686
-0.362247
-0.344091
-0.324792
-0.304787
-0.284398
-0.263845
-0.243268
-0.222739
-0.202283
-0.181882
-0.161492
-0.141046
-0.120462
-0.0996454
-0.0784997
-0.0569228
-0.0348071
-0.0120435
0.0114681
0.035816
0.0610775
0.087315
0.114568
0.142842
0.172105
0.202267
0.233174
0.264588
0.296167
0.327453
0.357847
0.3866
0.412805
0.435399
0.45319
0.464881
0.469168
0.465111
0.451935
0.425548
0.383241
-0.390771
-0.430063
-0.45395
-0.465187
-0.46803
-0.463624
-0.45317
-0.438074
-0.419606
-0.398821
-0.376563
-0.353485
-0.33006
-0.306617
-0.283365
-0.260416
-0.237815
-0.215547
-0.193561
-0.171776
-0.15009
-0.128387
-0.106542
-0.0844257
-0.0619066
-0.0388463
-0.0151038
0.00945315
0.0349471
0.0614919
0.0891891
0.11812
0.148338
0.179855
0.212632
0.246562
0.281449
0.316983
0.352721
0.388051
0.42217
0.454064
0.482499
0.50603
0.523022
0.531756
0.530864
0.519127
0.491627
0.445208
-0.455018
-0.498911
-0.523959
-0.533511
-0.532873
-0.523766
-0.507901
-0.487133
-0.46306
-0.43696
-0.409813
-0.382333
-0.355013
-0.328167
-0.30197
-0.27649
-0.251722
-0.227602
-0.20403
-0.18088
-0.158008
-0.135259
-0.112471
-0.0894808
-0.066123
-0.0422266
-0.0176175
0.00787169
0.0344003
0.0621221
0.0911826
0.121712
0.153816
0.187566
0.222987
0.260035
0.29858
0.33837
0.379004
0.419887
0.460191
0.498813
0.534345
0.565063
0.588921
0.603666
0.607331
0.598033
0.569682
0.518456
-0.530463
-0.579984
-0.605891
-0.612486
-0.606642
-0.590957
-0.567856
-0.539771
-0.508699
-0.476153
-0.443232
-0.410688
-0.378996
-0.348422
-0.319073
-0.290948
-0.263969
-0.238005
-0.212895
-0.188457
-0.164496
-0.140812
-0.117203
-0.0934692
-0.069409
-0.0448171
-0.019485
0.00679102
0.034209
0.0629652
0.093253
0.125256
0.159143
0.195055
0.233093
0.273303
0.315641
0.35995
0.405909
0.452985
0.500367
0.546904
0.591038
0.63075
0.663519
0.686411
0.696634
0.691317
0.662644
0.605744
-0.620385
-0.6768
-0.702833
-0.704403
-0.690783
-0.665888
-0.633125
-0.595651
-0.555904
-0.515623
-0.475978
-0.437703
-0.401199
-0.366628
-0.333992
-0.303181
-0.27402
-0.24629
-0.219752
-0.194157
-0.169255
-0.144794
-0.120528
-0.0962185
-0.0716276
-0.0465152
-0.0206376
0.00624534
0.0343709
0.0639794
0.0953144
0.128619
0.164129
0.202067
0.242629
0.285968
0.332163
0.381185
0.432849
0.486743
0.542147
0.597929
0.65244
0.70339
0.747735
0.781708
0.801404
0.802483
0.774529
0.710905
-0.729653
-0.794405
-0.818963
-0.812115
-0.786867
-0.749086
-0.703474
-0.654041
-0.603668
-0.554243
-0.506915
-0.462298
-0.420631
-0.381906
-0.345957
-0.312528
-0.281311
-0.251979
-0.224201
-0.197651
-0.172013
-0.146984
-0.122271
-0.0975952
-0.072683
-0.0472605
-0.02105
0.00622389
0.0348368
0.0650728
0.0972268
0.131603
0.168512
0.208266
0.251171
0.297509
0.347515
0.401338
0.458989
0.520261
0.584624
0.651084
0.718015
0.782947
0.842324
0.891412
0.924857
0.936184
0.910975
0.839494
-0.865816
-0.9402
-0.959946
-0.939075
-0.896431
-0.840666
-0.778091
-0.713611
-0.650437
-0.590433
-0.534549
-0.483128
-0.436122
-0.393256
-0.354132
-0.318294
-0.285275
-0.254615
-0.225876
-0.198648
-0.172547
-0.147214
-0.122311
-0.09752
-0.072534
-0.0470474
-0.0207519
0.00666045
0.0355009
0.0660952
0.0987882
0.133945
0.171955
0.213225
0.258182
0.307262
0.360887
0.419434
0.483186
0.552244
0.626407
0.704995
0.786603
0.868785
0.947608
1.01733
1.07083
1.09862
1.0801
0.999934
-1.04116
-1.12526
-1.13339
-1.08923
-1.0206
-0.939904
-0.855211
-0.772143
-0.693918
-0.622043
-0.556979
-0.498572
-0.446326
-0.399585
-0.35764
-0.319791
-0.285376
-0.253785
-0.224467
-0.196923
-0.170699
-0.145383
-0.120595
-0.0959808
-0.0712051
-0.0459349
-0.0198361
0.00742673
0.0361961
0.0668343
0.0997323
0.135314
0.174042
0.216424
0.263016
0.31442
0.371275
0.434239
0.503944
0.580921
0.665478
0.75749
0.856101
0.959257
1.06302
1.16084
1.24367
1.298
1.29387
1.20571
-1.27692
-1.36642
-1.34916
-1.26647
-1.15929
-1.04447
-0.931524
-0.826139
-0.730855
-0.646247
-0.571861
-0.506747
-0.449765
-0.399754
-0.355621
-0.316376
-0.281145
-0.24916
-0.219752
-0.192337
-0.166397
-0.141473
-0.117149
-0.0930425
-0.068794
-0.0440514
-0.0184615
0.00833146
0.036694
0.0670182
0.0997329
0.135313
0.17429
0.217266
0.264923
0.318039
0.377488
0.444248
0.519376
0.603962
0.699028
0.805328
0.923015
1.05106
1.18625
1.32198
1.44759
1.54484
1.57025
1.47979
-1.61176
-1.68936
-1.61888
-1.47289
-1.3094
-1.14903
-1.00124
-0.870259
-0.756731
-0.659422
-0.57639
-0.505538
-0.444876
-0.392631
-0.34727
-0.307497
-0.272218
-0.240516
-0.211614
-0.184854
-0.159668
-0.135559
-0.112086
-0.0888473
-0.0654705
-0.0415926
-0.0168498
0.00912452
0.0367115
0.0663225
0.0984134
0.133497
0.172162
0.215089
0.263076
0.317066
0.378169
0.447701
0.527195
0.618413
0.723299
0.843854
0.981846
1.1382
1.31179
1.49756
1.68486
1.85135
1.93623
1.8635
-2.11637
-2.1315
-1.95368
-1.70581
-1.46232
-1.24357
-1.05516
-0.896964
-0.765735
-0.657268
-0.567476
-0.492776
-0.430175
-0.377226
-0.331955
-0.292773
-0.258397
-0.227783
-0.200075
-0.174562
-0.150646
-0.12781
-0.105601
-0.0836128
-0.0614704
-0.0388109
-0.0152712
0.00951554
0.035933
0.064399
0.0953811
0.129414
0.16712
0.209236
0.256649
0.310436
0.371917
0.442721
0.524865
0.620833
0.733652
0.866919
1.0247
1.2111
1.42915
1.67853
1.95262
2.22901
2.43051
2.43106
-2.91917
-2.74244
-2.35986
-1.95528
-1.60295
-1.31342
-1.08147
-0.897583
-0.751886
-0.635846
-0.542641
-0.466989
-0.404858
-0.353178
-0.309599
-0.272309
-0.239895
-0.21124
-0.185449
-0.161794
-0.139668
-0.118559
-0.0980205
-0.0776551
-0.0570986
-0.036
-0.0140095
0.00922841
0.0340869
0.0609746
0.0903536
0.122757
0.158817
0.19929
0.24511
0.297435
0.357731
0.427869
0.510274
0.608105
0.725503
0.867879
1.04221
1.25718
1.52285
1.84893
2.24025
2.6839
3.10326
3.31436
-4.30912
-3.58112
-2.81346
-2.18545
-1.69876
-1.3334
-1.06274
-0.860962
-0.708412
-0.591252
-0.499784
-0.427178
-0.368589
-0.320535
-0.280467
-0.246486
-0.21715
-0.191347
-0.168197
-0.146995
-0.127162
-0.108213
-0.0897264
-0.071332
-0.0526894
-0.0334722
-0.0133561
0.00799007
0.0309155
0.0558039
0.0830915
0.113286
0.146994
0.184952
0.228081
0.277544
0.334843
0.401955
0.481527
0.577171
0.693901
0.838786
1.02186
1.25741
1.56577
1.97389
2.50942
3.19054
4.01494
4.80835
-7.04727
-4.67413
-3.14044
-2.23769
-1.63782
-1.23001
-0.95191
-0.756929
-0.615571
-0.510122
-0.429492
-0.366449
-0.316143
-0.27523
-0.24133
-0.212709
-0.188068
-0.166413
-0.146967
-0.129108
-0.112329
-0.0962048
-0.0803692
-0.0644984
-0.0482953
-0.031476
-0.013757
0.00515084
0.0255538
0.0477887
0.0722392
0.0993529
0.129666
0.163835
0.20268
0.24725
0.298911
0.359486
0.431466
0.518349
0.625193
0.75953
0.932912
1.16373
1.48254
1.93826
2.59741
3.5728
5.19483
7.67864
-11.6824
-5.75942
-2.98939
-1.87328
-1.28485
-0.931507
-0.710847
-0.564355
-0.460868
-0.38444
-0.326168
-0.280604
-0.244206
-0.214558
-0.189943
-0.169097
-0.151068
-0.135119
-0.120669
-0.107248
-0.0944712
-0.0820116
-0.0695881
-0.0569496
-0.043864
-0.0301082
-0.0154593
0.000311502
0.0174458
0.0362086
0.0569006
0.0798716
0.105538
0.134407
0.167108
0.204436
0.24742
0.297423
0.356295
0.426632
0.512221
0.618851
0.755906
0.939927
1.20288
1.60626
2.26195
3.47274
6.3586
12.4037
)
;

boundaryField
{
    movingWall
    {
        type            zeroGradient;
    }
    fixedWalls
    {
        type            zeroGradient;
    }
    frontAndBack
    {
        type            empty;
    }
}


// ************************************************************************* //
