/*--------------------------------*- C++ -*----------------------------------*\
| =========                 |                                                 |
| \\      /  F ield         | OpenFOAM: The Open Source CFD Toolbox           |
|  \\    /   O peration     | Version:  v2012                                 |
|   \\  /    A nd           | Website:  www.openfoam.com                      |
|    \\/     M anipulation  |                                                 |
\*---------------------------------------------------------------------------*/
FoamFile
{
    version     2.0;
    format      ascii;
    class       surfaceScalarField;
    location    "0.05";
    object      phi;
}
// * * * * * * * * * * * * * * * * * * * * * * * * * * * * * * * * * * * * * //

dimensions      [0 3 -1 0 0 0 0];
oriented        oriented;


internalField   nonuniform List<scalar> 
4900
(
1.04436e-09
-1.04427e-09
2.09271e-09
-1.04841e-09
2.09001e-09
2.65341e-12
6.7241e-10
1.41768e-09
-2.22226e-09
2.89472e-09
-6.50653e-09
4.28429e-09
-1.20231e-08
5.51658e-09
-1.85838e-08
6.56067e-09
-2.59894e-08
7.40562e-09
-3.40403e-08
8.05086e-09
-4.25418e-08
8.50156e-09
-5.13079e-08
8.76605e-09
-6.01626e-08
8.85468e-09
-6.89416e-08
8.77892e-09
-7.74924e-08
8.55083e-09
-8.56752e-08
8.18276e-09
-9.33623e-08
7.6872e-09
-1.00439e-07
7.0767e-09
-1.06803e-07
6.36378e-09
-1.12364e-07
5.56086e-09
-1.17044e-07
4.68031e-09
-1.20779e-07
3.73448e-09
-1.23514e-07
2.73564e-09
-1.2521e-07
1.69604e-09
-1.25839e-07
6.28501e-10
-1.25386e-07
-4.52977e-10
-1.23853e-07
-1.53304e-09
-1.21256e-07
-2.59705e-09
-1.17625e-07
-3.63061e-09
-1.13006e-07
-4.61922e-09
-1.07458e-07
-5.54773e-09
-1.01058e-07
-6.40041e-09
-9.38964e-08
-7.16132e-09
-8.60818e-08
-7.81454e-09
-7.77376e-08
-8.34431e-09
-6.90023e-08
-8.73524e-09
-6.00297e-08
-8.9727e-09
-5.09866e-08
-9.04309e-09
-4.20524e-08
-8.93414e-09
-3.3417e-08
-8.63542e-09
-2.52781e-08
-8.13886e-09
-1.78385e-08
-7.43966e-09
-1.1301e-08
-6.53745e-09
-5.86246e-09
-5.43861e-09
-1.70167e-09
-4.16081e-09
1.04064e-09
-2.74233e-09
2.30107e-09
-1.26044e-09
2.16738e-09
1.33685e-10
1.04589e-09
1.12144e-09
1.04587e-09
1.05768e-09
-2.10192e-09
1.09622e-09
-1.08695e-09
-1.41423e-09
2.51296e-09
-7.16778e-09
7.17107e-09
-1.6358e-08
1.20849e-08
-2.88699e-08
1.67961e-08
-4.44006e-08
2.10473e-08
-6.25415e-08
2.47016e-08
-8.28291e-08
2.76932e-08
-1.04777e-07
2.99984e-08
-1.27895e-07
3.16193e-08
-1.51703e-07
3.25744e-08
-1.75741e-07
3.28926e-08
-1.99572e-07
3.26096e-08
-2.22786e-07
3.17654e-08
-2.45006e-07
3.04025e-08
-2.65884e-07
2.85653e-08
-2.85106e-07
2.6299e-08
-3.02392e-07
2.36494e-08
-3.17494e-07
2.06627e-08
-3.30199e-07
1.73851e-08
-3.40327e-07
1.38633e-08
-3.47736e-07
1.0144e-08
-3.52314e-07
6.27452e-09
-3.5399e-07
2.30405e-09
-3.52728e-07
-1.71506e-09
-3.48533e-07
-5.72791e-09
-3.4145e-07
-9.67975e-09
-3.31565e-07
-1.35161e-08
-3.19002e-07
-1.71819e-08
-3.03929e-07
-2.06206e-08
-2.86555e-07
-2.37744e-08
-2.67131e-07
-2.65851e-08
-2.45951e-07
-2.89946e-08
-2.2335e-07
-3.09463e-08
-1.99699e-07
-3.23854e-08
-1.75411e-07
-3.32607e-08
-1.50929e-07
-3.35255e-08
-1.26724e-07
-3.31395e-08
-1.03288e-07
-3.20706e-08
-8.11294e-08
-3.02979e-08
-6.07545e-08
-2.78147e-08
-4.26572e-08
-2.46348e-08
-2.72948e-08
-2.08011e-08
-1.50547e-08
-1.6401e-08
-6.20376e-09
-1.15932e-08
-8.08164e-10
-6.65601e-09
1.38878e-09
-2.06327e-09
1.13307e-09
1.37715e-09
2.17892e-09
5.32209e-11
-2.15522e-09
-2.40836e-09
1.37479e-09
-8.8331e-09
8.93772e-09
-1.99301e-08
1.82681e-08
-3.59045e-08
2.80592e-08
-5.66015e-08
3.74931e-08
-8.16215e-08
4.60672e-08
-1.10408e-07
5.34885e-08
-1.42313e-07
5.95982e-08
-1.76639e-07
6.43243e-08
-2.12672e-07
6.76517e-08
-2.497e-07
6.96032e-08
-2.87036e-07
7.02277e-08
-3.24017e-07
6.9591e-08
-3.60022e-07
6.77707e-08
-3.94472e-07
6.48523e-08
-4.26833e-07
6.09264e-08
-4.56621e-07
5.60868e-08
-4.83401e-07
5.04298e-08
-5.06792e-07
4.40529e-08
-5.26461e-07
3.70549e-08
-5.42134e-07
2.95358e-08
-5.53587e-07
2.15966e-08
-5.60652e-07
1.33399e-08
-5.6322e-07
4.87171e-09
-5.61238e-07
-3.69659e-09
-5.54716e-07
-1.22494e-08
-5.43726e-07
-2.06704e-08
-5.28399e-07
-2.88429e-08
-5.08932e-07
-3.66488e-08
-4.85585e-07
-4.39676e-08
-4.58682e-07
-5.06771e-08
-4.28613e-07
-5.66549e-08
-3.95827e-07
-6.17798e-08
-3.6084e-07
-6.5934e-08
-3.2422e-07
-6.90048e-08
-2.86593e-07
-7.08878e-08
-2.48629e-07
-7.14899e-08
-2.11035e-07
-7.07328e-08
-1.74548e-07
-6.85579e-08
-1.39914e-07
-6.4932e-08
-1.07873e-07
-5.9856e-08
-7.91315e-08
-5.3376e-08
-5.43313e-08
-4.56013e-08
-3.40008e-08
-3.67315e-08
-1.84927e-08
-2.71014e-08
-7.89703e-09
-1.72517e-08
-1.93143e-09
-8.02887e-09
1.93371e-10
-7.47673e-10
2.37228e-09
-1.31725e-09
-8.3804e-10
-6.98759e-09
7.04516e-09
-1.8087e-08
2.00371e-08
-3.51462e-08
3.53273e-08
-5.82613e-08
5.11743e-08
-8.71848e-08
6.64166e-08
-1.21414e-07
8.02966e-08
-1.60269e-07
9.23438e-08
-2.02956e-07
1.02285e-07
-2.48612e-07
1.09981e-07
-2.96347e-07
1.15387e-07
-3.45268e-07
1.18524e-07
-3.94498e-07
1.19458e-07
-4.43195e-07
1.18288e-07
-4.90561e-07
1.15136e-07
-5.35847e-07
1.10138e-07
-5.78363e-07
1.03443e-07
-6.17481e-07
9.52047e-08
-6.52636e-07
8.55844e-08
-6.83329e-07
7.47459e-08
-7.0913e-07
6.28562e-08
-7.29679e-07
5.00848e-08
-7.44686e-07
3.66038e-08
-7.53935e-07
2.25888e-08
-7.57284e-07
8.22029e-09
-7.54667e-07
-6.31332e-09
-7.46098e-07
-2.08184e-08
-7.3167e-07
-3.50981e-08
-7.11558e-07
-4.89549e-08
-6.86019e-07
-6.21884e-08
-6.55391e-07
-7.45951e-08
-6.20098e-07
-8.597e-08
-5.80645e-07
-9.6108e-08
-5.37618e-07
-1.04808e-07
-4.91678e-07
-1.11873e-07
-4.43563e-07
-1.1712e-07
-3.94072e-07
-1.20378e-07
-3.44064e-07
-1.21498e-07
-2.94441e-07
-1.20357e-07
-2.46131e-07
-1.16867e-07
-2.00076e-07
-1.10988e-07
-1.57197e-07
-1.02735e-07
-1.1837e-07
-9.22027e-08
-8.43834e-08
-7.9588e-08
-5.58866e-08
-6.52283e-08
-3.33289e-08
-4.96591e-08
-1.68828e-08
-3.36977e-08
-6.36074e-09
-1.8551e-08
-1.12949e-09
-5.97894e-09
1.24281e-09
-2.77473e-09
1.93665e-09
-1.19447e-08
1.62151e-08
-2.80918e-08
3.61842e-08
-5.14506e-08
5.86861e-08
-8.19196e-08
8.16433e-08
-1.19104e-07
1.03601e-07
-1.62375e-07
1.23567e-07
-2.10926e-07
1.40895e-07
-2.63832e-07
1.5519e-07
-3.20091e-07
1.6624e-07
-3.78666e-07
1.73962e-07
-4.38513e-07
1.7837e-07
-4.98602e-07
1.79547e-07
-5.5794e-07
1.77626e-07
-6.1558e-07
1.72777e-07
-6.70636e-07
1.65194e-07
-7.22284e-07
1.55091e-07
-7.69775e-07
1.42695e-07
-8.12432e-07
1.28242e-07
-8.4966e-07
1.11974e-07
-8.80944e-07
9.41398e-08
-9.05851e-07
7.49923e-08
-9.24037e-07
5.47891e-08
-9.35241e-07
3.37933e-08
-9.39296e-07
1.22752e-08
-9.36124e-07
-9.48522e-09
-9.25742e-07
-3.12001e-08
-9.08263e-07
-5.25774e-08
-8.83895e-07
-7.33223e-08
-8.52948e-07
-9.31361e-08
-8.15827e-07
-1.11716e-07
-7.73037e-07
-1.28759e-07
-7.25183e-07
-1.43963e-07
-6.72961e-07
-1.57029e-07
-6.17161e-07
-1.67673e-07
-5.58657e-07
-1.75625e-07
-4.98397e-07
-1.80639e-07
-4.37393e-07
-1.82501e-07
-3.7671e-07
-1.8104e-07
-3.17438e-07
-1.76139e-07
-2.60676e-07
-1.67749e-07
-2.07503e-07
-1.55908e-07
-1.58938e-07
-1.40768e-07
-1.15904e-07
-1.22622e-07
-7.9176e-08
-1.01956e-07
-4.93265e-08
-7.95086e-08
-2.66673e-08
-5.6357e-08
-1.11938e-08
-3.40245e-08
-2.54647e-09
-1.46263e-08
-1.30366e-09
-4.20459e-09
6.14127e-09
-1.69313e-08
2.89418e-08
-3.82525e-08
5.75054e-08
-6.80501e-08
8.84837e-08
-1.05968e-07
1.19562e-07
-1.51421e-07
1.49054e-07
-2.03622e-07
1.75768e-07
-2.61628e-07
1.98901e-07
-3.24381e-07
2.17943e-07
-3.9075e-07
2.32609e-07
-4.59566e-07
2.42779e-07
-5.29655e-07
2.48459e-07
-5.99857e-07
2.49749e-07
-6.6905e-07
2.46819e-07
-7.36163e-07
2.3989e-07
-8.00192e-07
2.29222e-07
-8.60202e-07
2.15102e-07
-9.15341e-07
1.97834e-07
-9.6484e-07
1.77741e-07
-1.00802e-06
1.55154e-07
-1.04429e-06
1.30413e-07
-1.07317e-06
1.03868e-07
-1.09425e-06
7.58727e-08
-1.10725e-06
4.67901e-08
-1.11197e-06
1.69932e-08
-1.10832e-06
-1.3134e-08
-1.09632e-06
-4.31966e-08
-1.07611e-06
-7.27941e-08
-1.04791e-06
-1.01521e-07
-1.01208e-06
-1.28967e-07
-9.69075e-07
-1.54717e-07
-9.19479e-07
-1.78356e-07
-8.63972e-07
-1.99469e-07
-8.03347e-07
-2.17654e-07
-7.38498e-07
-2.32522e-07
-6.70415e-07
-2.43708e-07
-6.00171e-07
-2.50882e-07
-5.28913e-07
-2.53759e-07
-4.57838e-07
-2.52115e-07
-3.88181e-07
-2.45797e-07
-3.2118e-07
-2.3475e-07
-2.58052e-07
-2.19036e-07
-1.99956e-07
-1.98864e-07
-1.4795e-07
-1.74628e-07
-1.0295e-07
-1.46956e-07
-6.56834e-08
-1.16775e-07
-3.66466e-08
-8.53938e-08
-1.60757e-08
-5.45954e-08
-3.94178e-09
-2.67601e-08
-5.24544e-09
-5.56652e-09
1.17078e-08
-2.17914e-08
4.51667e-08
-4.82726e-08
8.39867e-08
-8.45247e-08
1.24736e-07
-1.29907e-07
1.64944e-07
-1.83609e-07
2.02756e-07
-2.44663e-07
2.36822e-07
-3.1197e-07
2.66207e-07
-3.84331e-07
2.90305e-07
-4.60488e-07
3.08765e-07
-5.39146e-07
3.21437e-07
-6.1901e-07
3.28323e-07
-6.98805e-07
3.29544e-07
-7.77297e-07
3.25311e-07
-8.53309e-07
3.15903e-07
-9.25734e-07
3.01647e-07
-9.93544e-07
2.82912e-07
-1.0558e-06
2.60089e-07
-1.11165e-06
2.33594e-07
-1.16035e-06
2.03855e-07
-1.20126e-06
1.71316e-07
-1.23382e-06
1.36429e-07
-1.2576e-06
9.96564e-08
-1.27228e-06
6.14713e-08
-1.27765e-06
2.23588e-08
-1.2736e-06
-1.71818e-08
-1.26016e-06
-5.66387e-08
-1.23746e-06
-9.54914e-08
-1.20577e-06
-1.33213e-07
-1.16547e-06
-1.6927e-07
-1.11706e-06
-2.03124e-07
-1.06118e-06
-2.34235e-07
-9.98581e-07
-2.62068e-07
-9.30134e-07
-2.86102e-07
-8.56822e-07
-3.05834e-07
-7.79734e-07
-3.20796e-07
-7.00051e-07
-3.30564e-07
-6.19035e-07
-3.34775e-07
-5.38007e-07
-3.33143e-07
-4.58327e-07
-3.25477e-07
-3.81366e-07
-3.11711e-07
-3.08476e-07
-2.91926e-07
-2.40955e-07
-2.66385e-07
-1.80009e-07
-2.35574e-07
-1.26715e-07
-2.00251e-07
-8.19814e-08
-1.61509e-07
-4.6523e-08
-1.20852e-07
-2.08477e-08
-8.02707e-08
-5.27317e-09
-4.23347e-08
-1.05186e-08
-6.85461e-09
1.85625e-08
-2.64761e-08
6.47882e-08
-5.80387e-08
1.15549e-07
-1.00697e-07
1.67394e-07
-1.53514e-07
2.17761e-07
-2.15435e-07
2.64677e-07
-2.85289e-07
3.06676e-07
-3.61804e-07
3.42722e-07
-4.43633e-07
3.72134e-07
-5.29379e-07
3.94511e-07
-6.17626e-07
4.09684e-07
-7.06963e-07
4.1766e-07
-7.96007e-07
4.18588e-07
-8.83422e-07
4.12726e-07
-9.67937e-07
4.00418e-07
-1.04836e-06
3.82066e-07
-1.12357e-06
3.58125e-07
-1.19256e-06
3.29083e-07
-1.25442e-06
2.95454e-07
-1.30834e-06
2.57774e-07
-1.35362e-06
2.16595e-07
-1.38967e-06
1.7248e-07
-1.41603e-06
1.2601e-07
-1.43233e-06
7.7775e-08
-1.43835e-06
2.83809e-08
-1.43399e-06
-2.15494e-08
-1.41925e-06
-7.13784e-08
-1.39428e-06
-1.20457e-07
-1.35937e-06
-1.68128e-07
-1.31491e-06
-2.13724e-07
-1.26146e-06
-2.56574e-07
-1.19969e-06
-2.96004e-07
-1.13041e-06
-3.31348e-07
-1.05456e-06
-3.61954e-07
-9.73194e-07
-3.872e-07
-8.8749e-07
-4.065e-07
-7.98725e-07
-4.1933e-07
-7.08264e-07
-4.25236e-07
-6.17542e-07
-4.23865e-07
-5.28039e-07
-4.14979e-07
-4.41258e-07
-3.98493e-07
-3.58686e-07
-3.74497e-07
-2.81772e-07
-3.43299e-07
-2.11882e-07
-3.05464e-07
-1.50272e-07
-2.61861e-07
-9.8056e-08
-2.13725e-07
-5.61887e-08
-1.62719e-07
-2.54626e-08
-1.10997e-07
-6.53456e-09
-6.12627e-08
-1.70531e-08
-8.07816e-09
2.66406e-08
-3.09922e-08
8.77023e-08
-6.75408e-08
1.52098e-07
-1.16537e-07
2.16391e-07
-1.76747e-07
2.7797e-07
-2.46858e-07
3.34789e-07
-3.25484e-07
3.85301e-07
-4.11164e-07
4.28403e-07
-5.0239e-07
4.63359e-07
-5.97622e-07
4.89743e-07
-6.95316e-07
5.07378e-07
-7.93947e-07
5.1629e-07
-8.92027e-07
5.16668e-07
-9.88127e-07
5.08826e-07
-1.08089e-06
4.93178e-07
-1.16903e-06
4.70212e-07
-1.25138e-06
4.40477e-07
-1.32686e-06
4.04562e-07
-1.3945e-06
3.63089e-07
-1.45343e-06
3.16706e-07
-1.50292e-06
2.66081e-07
-1.54233e-06
2.11899e-07
-1.57118e-06
1.54859e-07
-1.58909e-06
9.56784e-08
-1.59579e-06
3.50899e-08
-1.59119e-06
-2.6154e-08
-1.57529e-06
-8.72826e-08
-1.54823e-06
-1.47512e-07
-1.51031e-06
-2.06045e-07
-1.46196e-06
-2.62076e-07
-1.40375e-06
-3.14789e-07
-1.33638e-06
-3.6337e-07
-1.26072e-06
-4.07011e-07
-1.17775e-06
-4.44921e-07
-1.08861e-06
-4.76345e-07
-9.94533e-07
-5.00573e-07
-8.96897e-07
-5.16966e-07
-7.97162e-07
-5.24972e-07
-6.9687e-07
-5.24157e-07
-5.97623e-07
-5.14227e-07
-5.01053e-07
-4.95063e-07
-4.08795e-07
-4.66755e-07
-3.22454e-07
-4.2964e-07
-2.43575e-07
-3.84342e-07
-1.73611e-07
-3.31825e-07
-1.13899e-07
-2.73437e-07
-6.56457e-08
-2.10972e-07
-2.99321e-08
-1.4671e-07
-7.73645e-09
-8.34584e-08
-2.47895e-08
-9.25225e-09
3.58929e-08
-3.53726e-08
1.13823e-07
-7.68247e-08
1.9355e-07
-1.321e-07
2.71666e-07
-1.99669e-07
3.45539e-07
-2.7796e-07
4.13081e-07
-3.65357e-07
4.72698e-07
-4.60201e-07
5.23247e-07
-5.6081e-07
5.63968e-07
-6.65494e-07
5.94427e-07
-7.72576e-07
6.1446e-07
-8.80414e-07
6.24128e-07
-9.87417e-07
6.23672e-07
-1.09206e-06
6.13473e-07
-1.19292e-06
5.94028e-07
-1.28862e-06
5.65921e-07
-1.37795e-06
5.29799e-07
-1.45975e-06
4.86362e-07
-1.53301e-06
4.36348e-07
-1.59682e-06
3.80523e-07
-1.65042e-06
3.19676e-07
-1.69314e-06
2.54616e-07
-1.72445e-06
1.86173e-07
-1.74396e-06
1.1519e-07
-1.7514e-06
4.25342e-08
-1.74665e-06
-3.09074e-08
-1.72971e-06
-1.04226e-07
-1.70072e-06
-1.76498e-07
-1.65999e-06
-2.4678e-07
-1.60794e-06
-3.1412e-07
-1.54518e-06
-3.77554e-07
-1.47243e-06
-4.36114e-07
-1.3906e-06
-4.88844e-07
-1.30072e-06
-5.34804e-07
-1.20397e-06
-5.73094e-07
-1.10167e-06
-6.0287e-07
-9.95271e-07
-6.23365e-07
-8.86326e-07
-6.33917e-07
-7.76487e-07
-6.33996e-07
-6.67477e-07
-6.23237e-07
-5.61066e-07
-6.01474e-07
-4.59043e-07
-5.68778e-07
-3.63186e-07
-5.25497e-07
-2.7523e-07
-4.72299e-07
-1.96841e-07
-4.10214e-07
-1.29594e-07
-3.40684e-07
-7.49571e-08
-2.65609e-07
-3.42973e-08
-1.8737e-07
-8.89612e-09
-1.0886e-07
-3.36857e-08
-1.03936e-08
4.62865e-08
-3.9662e-08
1.43091e-07
-8.59635e-08
2.39852e-07
-1.47484e-07
3.33186e-07
-2.22405e-07
4.2046e-07
-3.08892e-07
4.99568e-07
-4.05092e-07
5.68898e-07
-5.09137e-07
6.27293e-07
-6.19162e-07
6.73993e-07
-7.33317e-07
7.08582e-07
-8.49789e-07
7.30931e-07
-9.66813e-07
7.41153e-07
-1.0827e-06
7.39556e-07
-1.19583e-06
7.26605e-07
-1.30469e-06
7.02891e-07
-1.40787e-06
6.69101e-07
-1.50407e-06
6.25995e-07
-1.5921e-06
5.74391e-07
-1.6709e-06
5.15146e-07
-1.73952e-06
4.49153e-07
-1.79718e-06
3.77327e-07
-1.84317e-06
3.00607e-07
-1.87695e-06
2.19953e-07
-1.8981e-06
1.36343e-07
-1.90635e-06
5.07787e-08
-1.90154e-06
-3.57147e-08
-1.88368e-06
-1.22088e-07
-1.85291e-06
-2.07269e-07
-1.80951e-06
-2.9017e-07
-1.75395e-06
-3.69684e-07
-1.68681e-06
-4.4469e-07
-1.60887e-06
-5.14064e-07
-1.52102e-06
-5.76688e-07
-1.42436e-06
-6.31466e-07
-1.32011e-06
-6.77342e-07
-1.20966e-06
-7.13322e-07
-1.09453e-06
-7.38499e-07
-9.7636e-07
-7.52083e-07
-8.5692e-07
-7.53435e-07
-7.38057e-07
-7.421e-07
-6.21686e-07
-7.17845e-07
-5.09759e-07
-6.80705e-07
-4.04238e-07
-6.31018e-07
-3.07067e-07
-5.6947e-07
-2.20138e-07
-4.97142e-07
-1.45276e-07
-4.15547e-07
-8.42178e-08
-3.26667e-07
-3.86132e-08
-2.32975e-07
-1.00331e-08
-1.3744e-07
-4.37187e-08
-1.15184e-08
5.78049e-08
-4.39085e-08
1.75481e-07
-9.50419e-08
2.90985e-07
-1.6281e-07
4.00954e-07
-2.45111e-07
5.02761e-07
-3.39843e-07
5.943e-07
-4.4491e-07
6.73965e-07
-5.58228e-07
7.4061e-07
-6.77738e-07
7.93504e-07
-8.01426e-07
8.3227e-07
-9.27332e-07
8.56837e-07
-1.05357e-06
8.67391e-07
-1.17834e-06
8.64326e-07
-1.29994e-06
8.48208e-07
-1.41679e-06
8.19735e-07
-1.5274e-06
7.7971e-07
-1.63042e-06
7.29016e-07
-1.72462e-06
6.68596e-07
-1.80891e-06
5.99437e-07
-1.88232e-06
5.22561e-07
-1.94401e-06
4.39017e-07
-1.99328e-06
3.49874e-07
-2.02955e-06
2.56227e-07
-2.0524e-06
1.5919e-07
-2.06152e-06
5.99017e-08
-2.05676e-06
-4.04729e-08
-2.03811e-06
-1.40741e-07
-2.00569e-06
-2.39684e-07
-1.9598e-06
-3.36061e-07
-1.90088e-06
-4.28607e-07
-1.82953e-06
-5.16041e-07
-1.74652e-06
-5.97074e-07
-1.65279e-06
-6.70418e-07
-1.54945e-06
-7.34809e-07
-1.43777e-06
-7.89024e-07
-1.31918e-06
-8.31903e-07
-1.1953e-06
-8.62384e-07
-1.06785e-06
-8.79533e-07
-9.38704e-07
-8.8258e-07
-8.09844e-07
-8.70959e-07
-6.83338e-07
-8.44352e-07
-5.61313e-07
-8.0273e-07
-4.45931e-07
-7.464e-07
-3.39354e-07
-6.76048e-07
-2.43718e-07
-5.92778e-07
-1.61108e-07
-4.98157e-07
-9.35374e-08
-3.94237e-07
-4.294e-08
-2.83572e-07
-1.1167e-08
-1.69213e-07
-5.48857e-08
-1.26418e-08
7.04468e-08
-4.81591e-08
2.10998e-07
-1.04146e-07
3.46972e-07
-1.78207e-07
4.75015e-07
-2.67954e-07
5.92508e-07
-3.71016e-07
6.97363e-07
-4.85048e-07
7.87997e-07
-6.07741e-07
8.63303e-07
-7.36837e-07
9.226e-07
-8.70146e-07
9.65579e-07
-1.00556e-06
9.9225e-07
-1.14106e-06
1.0029e-06
-1.27475e-06
9.98016e-07
-1.40484e-06
9.78295e-07
-1.52966e-06
9.44555e-07
-1.64768e-06
8.97729e-07
-1.7575e-06
8.38835e-07
-1.85785e-06
7.68949e-07
-1.94761e-06
6.89196e-07
-2.02578e-06
6.00733e-07
-2.09151e-06
5.04744e-07
-2.14407e-06
4.02435e-07
-2.18288e-06
2.95036e-07
-2.20749e-06
1.83796e-07
-2.21758e-06
6.99926e-08
-2.21298e-06
-4.50695e-08
-2.19367e-06
-1.60054e-07
-2.15976e-06
-2.73594e-07
-2.11152e-06
-3.84295e-07
-2.0494e-06
-4.90731e-07
-1.97399e-06
-5.91454e-07
-1.88606e-06
-6.85004e-07
-1.78656e-06
-7.69916e-07
-1.67662e-06
-8.44747e-07
-1.55756e-06
-9.0809e-07
-1.43085e-06
-9.58609e-07
-1.29817e-06
-9.95066e-07
-1.16134e-06
-1.01636e-06
-1.02235e-06
-1.02157e-06
-8.83313e-07
-1.01e-06
-7.46457e-07
-9.81208e-07
-6.14096e-07
-9.3509e-07
-4.88604e-07
-8.71892e-07
-3.72377e-07
-7.92274e-07
-2.6781e-07
-6.97345e-07
-1.77262e-07
-5.88705e-07
-1.03031e-07
-4.68468e-07
-4.73385e-08
-3.39264e-07
-1.23169e-08
-2.04234e-07
-6.72025e-08
-1.37776e-08
8.42244e-08
-5.24583e-08
2.49679e-07
-1.1336e-07
4.07874e-07
-1.93797e-07
5.55452e-07
-2.91096e-07
6.89806e-07
-4.0261e-07
8.08876e-07
-5.25736e-07
9.11123e-07
-6.57934e-07
9.955e-07
-7.96736e-07
1.0614e-06
-9.39774e-07
1.10862e-06
-1.08478e-06
1.13726e-06
-1.22962e-06
1.14773e-06
-1.37227e-06
1.14067e-06
-1.51086e-06
1.11688e-06
-1.64366e-06
1.07735e-06
-1.76907e-06
1.02314e-06
-1.88566e-06
9.55428e-07
-1.99214e-06
8.75425e-07
-2.08734e-06
7.84401e-07
-2.17027e-06
6.83655e-07
-2.24003e-06
5.74512e-07
-2.29591e-06
4.58314e-07
-2.3373e-06
3.36425e-07
-2.36374e-06
2.10233e-07
-2.3749e-06
8.1149e-08
-2.37058e-06
-4.93824e-08
-2.35075e-06
-1.79883e-07
-2.31551e-06
-3.08839e-07
-2.2651e-06
-4.347e-07
-2.19995e-06
-5.5588e-07
-2.12065e-06
-6.70759e-07
-2.02795e-06
-7.777e-07
-1.92281e-06
-8.75053e-07
-1.80638e-06
-9.61183e-07
-1.67998e-06
-1.03449e-06
-1.54516e-06
-1.09343e-06
-1.40363e-06
-1.13659e-06
-1.25733e-06
-1.16266e-06
-1.10834e-06
-1.17056e-06
-9.58918e-07
-1.15942e-06
-8.11466e-07
-1.12866e-06
-6.68494e-07
-1.07806e-06
-5.32598e-07
-1.00779e-06
-4.06429e-07
-9.18444e-07
-2.9265e-07
-8.11124e-07
-1.93912e-07
-6.87444e-07
-1.12811e-07
-5.49568e-07
-5.18679e-08
-4.00207e-07
-1.35005e-08
-2.42602e-07
-8.07031e-08
-1.49379e-08
9.91622e-08
-5.68464e-08
2.91587e-07
-1.22761e-07
4.73789e-07
-2.09699e-07
6.4239e-07
-3.14693e-07
7.948e-07
-4.34813e-07
9.28996e-07
-5.6719e-07
1.0435e-06
-7.0904e-07
1.13735e-06
-8.57684e-07
1.21005e-06
-1.01056e-06
1.2615e-06
-1.16525e-06
1.29195e-06
-1.31948e-06
1.30196e-06
-1.47112e-06
1.29231e-06
-1.61822e-06
1.26398e-06
-1.75898e-06
1.21811e-06
-1.89176e-06
1.15593e-06
-2.01509e-06
1.07876e-06
-2.12764e-06
9.87978e-07
-2.22825e-06
8.85011e-07
-2.3159e-06
7.713e-07
-2.3897e-06
6.48311e-07
-2.44891e-06
5.17523e-07
-2.49292e-06
3.80437e-07
-2.52126e-06
2.38572e-07
-2.53358e-06
9.34735e-08
-2.52968e-06
-5.32794e-08
-2.5095e-06
-2.0007e-07
-2.4731e-06
-3.45239e-07
-2.42072e-06
-4.87083e-07
-2.35274e-06
-6.23853e-07
-2.26974e-06
-7.53759e-07
-2.17247e-06
-8.74977e-07
-2.06185e-06
-9.85668e-07
-1.93904e-06
-1.08399e-06
-1.8054e-06
-1.16813e-06
-1.66249e-06
-1.23635e-06
-1.51209e-06
-1.28698e-06
-1.35622e-06
-1.31854e-06
-1.19708e-06
-1.3297e-06
-1.03707e-06
-1.31943e-06
-8.78759e-07
-1.28697e-06
-7.24873e-07
-1.23195e-06
-5.78245e-07
-1.15442e-06
-4.4179e-07
-1.0549e-06
-3.18466e-07
-9.34448e-07
-2.11227e-07
-7.94683e-07
-1.22988e-07
-6.37807e-07
-5.65846e-08
-4.66611e-07
-1.47347e-08
-2.84451e-07
-9.54378e-08
-1.61335e-08
1.15296e-07
-6.13601e-08
3.36814e-07
-1.32419e-07
5.44847e-07
-2.26019e-07
7.35991e-07
-3.38886e-07
9.07667e-07
-4.67794e-07
1.0579e-06
-6.09599e-07
1.18531e-06
-7.61265e-07
1.28902e-06
-9.19887e-07
1.36867e-06
-1.08271e-06
1.42432e-06
-1.24716e-06
1.4564e-06
-1.41082e-06
1.46562e-06
-1.57146e-06
1.45295e-06
-1.72704e-06
1.41957e-06
-1.87571e-06
1.36678e-06
-2.01578e-06
1.296e-06
-2.14576e-06
1.20873e-06
-2.26431e-06
1.10653e-06
-2.37025e-06
9.90953e-07
-2.46256e-06
8.63609e-07
-2.54036e-06
7.26105e-07
-2.60289e-06
5.80058e-07
-2.64955e-06
4.271e-07
-2.67986e-06
2.68879e-07
-2.69346e-06
1.0707e-07
-2.69012e-06
-5.66189e-08
-2.66975e-06
-2.20438e-07
-2.6324e-06
-3.82587e-07
-2.57827e-06
-5.41214e-07
-2.50771e-06
-6.94409e-07
-2.42126e-06
-8.40208e-07
-2.31964e-06
-9.76601e-07
-2.20376e-06
-1.10155e-06
-2.07476e-06
-1.21299e-06
-1.934e-06
-1.30889e-06
-1.78308e-06
-1.38727e-06
-1.62383e-06
-1.44623e-06
-1.45834e-06
-1.48403e-06
-1.28892e-06
-1.49912e-06
-1.11812e-06
-1.49023e-06
-9.48689e-07
-1.4564e-06
-7.83571e-07
-1.39707e-06
-6.25851e-07
-1.31214e-06
-4.7873e-07
-1.20202e-06
-3.45474e-07
-1.0677e-06
-2.29368e-07
-9.10788e-07
-1.33667e-07
-7.33508e-07
-6.15422e-08
-5.38736e-07
-1.6035e-08
-3.29959e-07
-1.11473e-07
-1.73741e-08
1.3267e-07
-6.6032e-08
3.85472e-07
-1.42397e-07
6.21212e-07
-2.42852e-07
8.36446e-07
-3.638e-07
1.02861e-06
-5.01703e-07
1.19581e-06
-6.53127e-07
1.33673e-06
-8.14772e-07
1.45066e-06
-9.83503e-07
1.5374e-06
-1.15637e-06
1.59719e-06
-1.33061e-06
1.63064e-06
-1.5037e-06
1.6387e-06
-1.67329e-06
1.62254e-06
-1.83727e-06
1.58355e-06
-1.99374e-06
1.52324e-06
-2.14098e-06
1.44324e-06
-2.27747e-06
1.34523e-06
-2.40188e-06
1.23093e-06
-2.51303e-06
1.1021e-06
-2.60989e-06
9.60475e-07
-2.6916e-06
8.07817e-07
-2.75742e-06
6.45877e-07
-2.80674e-06
4.76416e-07
-2.83906e-06
3.01205e-07
-2.85403e-06
1.2204e-07
-2.8514e-06
-5.92509e-08
-2.83105e-06
-2.40791e-07
-2.79299e-06
-4.20648e-07
-2.73738e-06
-5.96825e-07
-2.66453e-06
-7.67255e-07
-2.57494e-06
-9.29803e-07
-2.46927e-06
-1.08227e-06
-2.34841e-06
-1.2224e-06
-2.21348e-06
-1.34792e-06
-2.06582e-06
-1.45655e-06
-1.90704e-06
-1.54605e-06
-1.73901e-06
-1.61425e-06
-1.5639e-06
-1.65915e-06
-1.38411e-06
-1.67891e-06
-1.20235e-06
-1.67199e-06
-1.02155e-06
-1.6372e-06
-8.44883e-07
-1.57374e-06
-6.75695e-07
-1.48132e-06
-5.17493e-07
-1.36022e-06
-3.73878e-07
-1.21132e-06
-2.48488e-07
-1.03618e-06
-1.44947e-07
-8.3705e-07
-6.67909e-08
-6.16892e-07
-1.74161e-08
-3.79333e-07
-1.28889e-07
-1.86684e-08
1.51338e-07
-7.08917e-08
4.37695e-07
-1.52752e-07
7.03073e-07
-2.60285e-07
9.43978e-07
-3.89544e-07
1.15787e-06
-5.36665e-07
1.34293e-06
-6.97906e-07
1.49797e-06
-8.69688e-07
1.62244e-06
-1.04864e-06
1.71635e-06
-1.23159e-06
1.78014e-06
-1.41563e-06
1.81468e-06
-1.59808e-06
1.82115e-06
-1.77652e-06
1.80098e-06
-1.94875e-06
1.75578e-06
-2.11283e-06
1.68732e-06
-2.26702e-06
1.59743e-06
-2.40981e-06
1.48801e-06
-2.53985e-06
1.36098e-06
-2.656e-06
1.21824e-06
-2.75724e-06
1.06172e-06
-2.84273e-06
8.9331e-07
-2.91175e-06
7.14893e-07
-2.96369e-06
5.28354e-07
-2.99806e-06
3.35579e-07
-3.0145e-06
1.38474e-07
-3.01273e-06
-6.10194e-08
-2.99261e-06
-2.60912e-07
-2.95411e-06
-4.59147e-07
-2.89734e-06
-6.53594e-07
-2.82256e-06
-8.42034e-07
-2.7302e-06
-1.02216e-06
-2.62088e-06
-1.19159e-06
-2.49543e-06
-1.34786e-06
-2.35491e-06
-1.48844e-06
-2.20065e-06
-1.61081e-06
-2.03425e-06
-1.71244e-06
-1.85762e-06
-1.79088e-06
-1.67297e-06
-1.8438e-06
-1.4828e-06
-1.86907e-06
-1.28997e-06
-1.86483e-06
-1.09759e-06
-1.82958e-06
-9.09059e-07
-1.76226e-06
-7.28023e-07
-1.66236e-06
-5.58305e-07
-1.52994e-06
-4.03865e-07
-1.36576e-06
-2.68729e-07
-1.17131e-06
-1.5692e-07
-9.48859e-07
-7.23787e-08
-7.01433e-07
-1.8892e-08
-4.3282e-07
-1.47781e-07
-2.00242e-08
1.71362e-07
-7.59663e-08
4.93637e-07
-1.63537e-07
7.90644e-07
-2.78392e-07
1.05883e-06
-4.16216e-07
1.2957e-06
-5.72787e-07
1.4995e-06
-7.44036e-07
1.66922e-06
-9.26095e-07
1.8045e-06
-1.11533e-06
1.90558e-06
-1.30838e-06
1.97319e-06
-1.50214e-06
2.00845e-06
-1.69382e-06
2.01283e-06
-1.8809e-06
1.98805e-06
-2.06113e-06
1.93601e-06
-2.23252e-06
1.85872e-06
-2.39335e-06
1.75826e-06
-2.5421e-06
1.63676e-06
-2.67747e-06
1.49634e-06
-2.79831e-06
1.33909e-06
-2.90368e-06
1.16709e-06
-2.99274e-06
9.82372e-07
-3.0648e-06
7.86955e-07
-3.11928e-06
5.82833e-07
-3.1557e-06
3.71997e-07
-3.17368e-06
1.56451e-07
-3.17293e-06
-6.17649e-08
-3.15328e-06
-2.80561e-07
-3.11466e-06
-4.97772e-07
-3.05711e-06
-7.11142e-07
-2.98083e-06
-9.18313e-07
-2.88618e-06
-1.11682e-06
-2.77369e-06
-1.30408e-06
-2.64413e-06
-1.47741e-06
-2.4985e-06
-1.63407e-06
-2.33808e-06
-1.77123e-06
-2.16444e-06
-1.88608e-06
-1.97949e-06
-1.97583e-06
-1.78549e-06
-2.03781e-06
-1.58502e-06
-2.06953e-06
-1.38107e-06
-2.06878e-06
-1.17695e-06
-2.0337e-06
-9.76293e-07
-1.96292e-06
-7.83041e-07
-1.85561e-06
-6.01363e-07
-1.71162e-06
-4.35608e-07
-1.53152e-06
-2.90224e-07
-1.3167e-06
-1.69675e-07
-1.06941e-06
-7.83513e-08
-7.92757e-07
-2.04761e-08
-4.90695e-07
-1.68257e-07
-2.14493e-08
1.92812e-07
-8.12814e-08
5.53469e-07
-1.74799e-07
8.84162e-07
-2.97245e-07
1.18128e-06
-4.43897e-07
1.44235e-06
-6.10152e-07
1.66575e-06
-7.9159e-07
1.85066e-06
-9.84033e-07
1.99695e-06
-1.18358e-06
2.10513e-06
-1.38665e-06
2.17626e-06
-1.58999e-06
2.21178e-06
-1.79065e-06
2.2135e-06
-1.98605e-06
2.18345e-06
-2.1739e-06
2.12386e-06
-2.35219e-06
2.03701e-06
-2.51921e-06
1.92528e-06
-2.67347e-06
1.79102e-06
-2.8137e-06
1.63657e-06
-2.93883e-06
1.46422e-06
-3.04795e-06
1.2762e-06
-3.14028e-06
1.0747e-06
-3.21515e-06
8.61833e-07
-3.27203e-06
6.39711e-07
-3.31045e-06
4.10413e-07
-3.33002e-06
1.76027e-07
-3.33046e-06
-6.13285e-08
-3.31154e-06
-2.99479e-07
-3.27315e-06
-5.36166e-07
-3.21527e-06
-7.69027e-07
-3.138e-06
-9.95575e-07
-3.04163e-06
-1.21319e-06
-2.9266e-06
-1.41911e-06
-2.79356e-06
-1.61045e-06
-2.64344e-06
-1.78419e-06
-2.47744e-06
-1.93724e-06
-2.29708e-06
-2.06644e-06
-2.10425e-06
-2.16866e-06
-1.90122e-06
-2.24084e-06
-1.69066e-06
-2.28009e-06
-1.47566e-06
-2.28378e-06
-1.25972e-06
-2.24964e-06
-1.04672e-06
-2.17591e-06
-8.40913e-07
-2.06142e-06
-6.46837e-07
-1.90569e-06
-4.69261e-07
-1.70909e-06
-3.13097e-07
-1.47286e-06
-1.83298e-07
-1.19921e-06
-8.47533e-08
-8.91301e-07
-2.21816e-08
-5.53267e-07
-1.90438e-07
-2.29511e-08
2.15763e-07
-8.68623e-08
6.17381e-07
-1.86586e-07
9.83885e-07
-3.16907e-07
1.3116e-06
-4.72662e-07
1.59811e-06
-6.4883e-07
1.84192e-06
-8.40613e-07
2.04244e-06
-1.0435e-06
2.19983e-06
-1.25332e-06
2.31495e-06
-1.46626e-06
2.3892e-06
-1.67889e-06
2.42441e-06
-1.88817e-06
2.42278e-06
-2.09144e-06
2.38672e-06
-2.28637e-06
2.31879e-06
-2.47098e-06
2.22162e-06
-2.64358e-06
2.09788e-06
-2.80273e-06
1.95018e-06
-2.94724e-06
1.78108e-06
-3.0761e-06
1.59308e-06
-3.18847e-06
1.38857e-06
-3.28363e-06
1.16986e-06
-3.361e-06
9.39202e-07
-3.42006e-06
6.98771e-07
-3.46038e-06
4.50729e-07
-3.48158e-06
1.97226e-07
-3.48335e-06
-5.95571e-08
-3.46544e-06
-3.17384e-07
-3.42768e-06
-5.73927e-07
-3.36998e-06
-8.26732e-07
-3.29234e-06
-1.07321e-06
-3.19495e-06
-1.31059e-06
-3.07812e-06
-1.53594e-06
-2.94239e-06
-1.74617e-06
-2.78858e-06
-1.93801e-06
-2.61776e-06
-2.10805e-06
-2.43139e-06
-2.25281e-06
-2.2313e-06
-2.36875e-06
-2.01975e-06
-2.4524e-06
-1.79945e-06
-2.50039e-06
-1.5736e-06
-2.50963e-06
-1.34587e-06
-2.47737e-06
-1.12041e-06
-2.40138e-06
-9.01759e-07
-2.28006e-06
-6.9487e-07
-2.11258e-06
-5.04965e-07
-1.899e-06
-3.37465e-07
-1.64036e-06
-1.97869e-07
-1.3388e-06
-9.16285e-08
-9.97542e-07
-2.40218e-08
-6.20874e-07
-2.1446e-07
-2.45378e-08
2.40301e-07
-9.27357e-08
6.85578e-07
-1.98945e-07
1.09009e-06
-3.37446e-07
1.4501e-06
-5.02583e-07
1.76324e-06
-6.88879e-07
2.02822e-06
-8.91124e-07
2.24469e-06
-1.10446e-06
2.41316e-06
-1.32441e-06
2.5349e-06
-1.54694e-06
2.61173e-06
-1.76847e-06
2.64594e-06
-1.98584e-06
2.64016e-06
-2.19635e-06
2.59722e-06
-2.39765e-06
2.52009e-06
-2.58781e-06
2.41178e-06
-2.76518e-06
2.27525e-06
-2.92843e-06
2.11342e-06
-3.07643e-06
1.92909e-06
-3.2083e-06
1.72494e-06
-3.32326e-06
1.50354e-06
-3.42072e-06
1.26732e-06
-3.50014e-06
1.01862e-06
-3.56107e-06
7.59704e-07
-3.60312e-06
4.92777e-07
-3.62593e-06
2.20034e-07
-3.62917e-06
-5.631e-08
-3.61258e-06
-3.33982e-07
-3.5759e-06
-6.10606e-07
-3.51896e-06
-8.83669e-07
-3.44168e-06
-1.15049e-06
-3.34409e-06
-1.40818e-06
-3.22637e-06
-1.65366e-06
-3.08893e-06
-1.88362e-06
-2.9324e-06
-2.09453e-06
-2.75775e-06
-2.2827e-06
-2.5663e-06
-2.44426e-06
-2.35979e-06
-2.57527e-06
-2.14043e-06
-2.67176e-06
-1.91095e-06
-2.72987e-06
-1.67464e-06
-2.74595e-06
-1.43531e-06
-2.7167e-06
-1.19735e-06
-2.63934e-06
-9.65651e-07
-2.51176e-06
-7.45576e-07
-2.33266e-06
-5.42844e-07
-2.10173e-06
-3.63439e-07
-1.81977e-06
-2.13469e-07
-1.48877e-06
-9.90213e-08
-1.11199e-06
-2.60104e-08
-6.93885e-07
-2.40471e-07
-2.62185e-08
2.66519e-07
-9.89316e-08
7.58292e-07
-2.11931e-07
1.20309e-06
-3.5893e-07
1.5971e-06
-5.33731e-07
1.93804e-06
-7.30348e-07
2.22484e-06
-9.43126e-07
2.45746e-06
-1.16682e-06
2.63686e-06
-1.39666e-06
2.76474e-06
-1.62838e-06
2.84345e-06
-1.85823e-06
2.87579e-06
-2.08298e-06
2.86491e-06
-2.29988e-06
2.81412e-06
-2.50663e-06
2.72685e-06
-2.70134e-06
2.60649e-06
-2.88247e-06
2.45638e-06
-3.04879e-06
2.27974e-06
-3.19931e-06
2.07961e-06
-3.33325e-06
1.85889e-06
-3.45e-06
1.62028e-06
-3.54903e-06
1.36635e-06
-3.62993e-06
1.09952e-06
-3.69231e-06
8.22092e-07
-3.73585e-06
5.36311e-07
-3.7602e-06
2.44385e-07
-3.76504e-06
-5.14664e-08
-3.75006e-06
-3.48962e-07
-3.71496e-06
-6.45711e-07
-3.65946e-06
-9.39167e-07
-3.58336e-06
-1.22659e-06
-3.48654e-06
-1.50499e-06
-3.36903e-06
-1.77117e-06
-3.23104e-06
-2.02161e-06
-3.07303e-06
-2.25255e-06
-2.89577e-06
-2.45996e-06
-2.70042e-06
-2.63961e-06
-2.48858e-06
-2.7871e-06
-2.26239e-06
-2.89795e-06
-2.02453e-06
-2.96772e-06
-1.77834e-06
-2.99214e-06
-1.52777e-06
-2.96727e-06
-1.27745e-06
-2.88967e-06
-1.03261e-06
-2.7566e-06
-7.9904e-07
-2.56622e-06
-5.83012e-07
-2.31776e-06
-3.91128e-07
-2.01165e-06
-2.30181e-07
-1.64972e-06
-1.06978e-07
-1.23519e-06
-2.81619e-08
-7.72701e-07
-2.68632e-07
-2.80042e-08
2.94524e-07
-1.05485e-07
8.35773e-07
-2.25605e-07
1.32321e-06
-3.81442e-07
1.75294e-06
-5.66184e-07
2.12279e-06
-7.73287e-07
2.43194e-06
-9.96603e-07
2.68078e-06
-1.23048e-06
2.87073e-06
-1.46982e-06
3.00408e-06
-1.71014e-06
3.08376e-06
-1.94754e-06
3.11319e-06
-2.17872e-06
3.09609e-06
-2.40094e-06
3.03634e-06
-2.61196e-06
2.93786e-06
-2.80997e-06