/*--------------------------------*- C++ -*----------------------------------*\
| =========                 |                                                 |
| \\      /  F ield         | OpenFOAM: The Open Source CFD Toolbox           |
|  \\    /   O peration     | Version:  v2012                                 |
|   \\  /    A nd           | Website:  www.openfoam.com                      |
|    \\/     M anipulation  |                                                 |
\*---------------------------------------------------------------------------*/
FoamFile
{
    version     2.0;
    format      ascii;
    class       volVectorField;
    location    "0.05";
    object      U;
}
// * * * * * * * * * * * * * * * * * * * * * * * * * * * * * * * * * * * * * //

dimensions      [0 1 -1 0 0 0 0];


internalField   nonuniform List<vector> 
2500
(
(2.90335e-05 -2.92309e-05 0)
(8.66354e-05 -3.53868e-05 0)
(0.000117091 -1.70546e-05 0)
(8.45149e-05 8.98151e-06 0)
(-2.30654e-05 3.56435e-05 0)
(-0.000203693 6.01093e-05 0)
(-0.000450482 8.12896e-05 0)
(-0.000754481 9.88664e-05 0)
(-0.00110583 0.000112848 0)
(-0.00149445 0.000123379 0)
(-0.00191043 0.000130655 0)
(-0.00234421 0.000134892 0)
(-0.0027867 0.000136312 0)
(-0.00322939 0.000135142 0)
(-0.00366435 0.000131601 0)
(-0.00408427 0.000125899 0)
(-0.00448245 0.000118242 0)
(-0.00485283 0.000108832 0)
(-0.00518999 9.7867e-05 0)
(-0.0054891 8.55391e-05 0)
(-0.00574598 7.20354e-05 0)
(-0.00595705 5.75404e-05 0)
(-0.00611936 4.22337e-05 0)
(-0.00623055 2.62909e-05 0)
(-0.0062889 9.894e-06 0)
(-0.00629336 -6.72728e-06 0)
(-0.0062436 -2.33458e-05 0)
(-0.00614007 -3.97206e-05 0)
(-0.00598392 -5.56427e-05 0)
(-0.00577705 -7.08974e-05 0)
(-0.00552206 -8.52552e-05 0)
(-0.00522236 -9.84714e-05 0)
(-0.00488214 -0.000110294 0)
(-0.00450639 -0.000120468 0)
(-0.00410088 -0.00012874 0)
(-0.00367218 -0.000134856 0)
(-0.00322761 -0.000138571 0)
(-0.0027752 -0.000139648 0)
(-0.00232364 -0.000137865 0)
(-0.00188218 -0.000133014 0)
(-0.00146055 -0.00012491 0)
(-0.00106882 -0.000113399 0)
(-0.000717198 -9.83708e-05 0)
(-0.000415798 -7.97904e-05 0)
(-0.000174183 -5.77759e-05 0)
(-6.67692e-07 -3.27942e-05 0)
(9.88799e-05 -6.09772e-06 0)
(0.000123897 1.93209e-05 0)
(8.79351e-05 3.63503e-05 0)
(2.88635e-05 2.87961e-05 0)
(3.54911e-05 -8.66618e-05 0)
(7.80543e-05 -7.73725e-05 0)
(2.65394e-05 2.11334e-05 0)
(-0.000174543 0.000153558 0)
(-0.000547602 0.000292885 0)
(-0.00109269 0.000425256 0)
(-0.00179799 0.000543557 0)
(-0.00264498 0.000644395 0)
(-0.00361138 0.000726385 0)
(-0.00467314 0.000789235 0)
(-0.00580562 0.000833286 0)
(-0.00698446 0.000859247 0)
(-0.00818607 0.000868054 0)
(-0.00938793 0.000860774 0)
(-0.0105689 0.000838555 0)
(-0.0117091 0.000802589 0)
(-0.0127906 0.000754085 0)
(-0.0137968 0.000694268 0)
(-0.0147127 0.000624362 0)
(-0.0155252 0.000545589 0)
(-0.0162227 0.000459169 0)
(-0.0167956 0.000366319 0)
(-0.0172355 0.000268258 0)
(-0.0175363 0.000166202 0)
(-0.0176933 6.14335e-05 0)
(-0.0177038 -4.46744e-05 0)
(-0.0175671 -0.000150636 0)
(-0.0172844 -0.000255016 0)
(-0.0168589 -0.000356384 0)
(-0.0162959 -0.000453303 0)
(-0.0156027 -0.000544281 0)
(-0.0147887 -0.000627782 0)
(-0.0138654 -0.000702249 0)
(-0.0128465 -0.000766124 0)
(-0.0117477 -0.000817874 0)
(-0.0105866 -0.000856007 0)
(-0.00938294 -0.00087911 0)
(-0.00815813 -0.000885876 0)
(-0.00693509 -0.000875143 0)
(-0.00573804 -0.000845942 0)
(-0.00459207 -0.000797558 0)
(-0.0035227 -0.00072962 0)
(-0.0025552 -0.000642245 0)
(-0.00171367 -0.00053627 0)
(-0.0010197 -0.00041371 0)
(-0.0004904 -0.000278628 0)
(-0.000135398 -0.000138785 0)
(4.81443e-05 -8.58553e-06 0)
(8.59166e-05 8.48548e-05 0)
(3.67285e-05 8.79457e-05 0)
(1.84504e-05 -0.000118761 0)
(-1.67819e-05 -2.68837e-05 0)
(-0.000227243 0.000232785 0)
(-0.000660239 0.00056415 0)
(-0.00133688 0.000914083 0)
(-0.00225716 0.00125096 0)
(-0.00340602 0.00155623 0)
(-0.00475861 0.00181961 0)
(-0.00628418 0.00203588 0)
(-0.00794862 0.00220289 0)
(-0.00971633 0.00232051 0)
(-0.0115515 0.00238983 0)
(-0.0134189 0.0024128 0)
(-0.0152847 0.00239189 0)
(-0.0171167 0.00232994 0)
(-0.018885 0.00223 0)
(-0.0205615 0.00209528 0)
(-0.0221209 0.00192906 0)
(-0.0235401 0.00173469 0)
(-0.0247988 0.00151555 0)
(-0.025879 0.00127505 0)
(-0.0267657 0.0010166 0)
(-0.0274462 0.000743666 0)
(-0.0279109 0.000459746 0)
(-0.0281527 0.000168471 0)
(-0.0281676 -0.000126324 0)
(-0.0279545 -0.000420629 0)
(-0.0275155 -0.000710431 0)
(-0.0268555 -0.000991723 0)
(-0.0259828 -0.00126045 0)
(-0.0249089 -0.00151246 0)
(-0.0236482 -0.00174352 0)
(-0.0222188 -0.00194938 0)
(-0.0206414 -0.00212581 0)
(-0.0189404 -0.0022687 0)
(-0.0171429 -0.00237408 0)
(-0.0152788 -0.00243825 0)
(-0.0133805 -0.00245787 0)
(-0.0114827 -0.00243009 0)
(-0.00962158 -0.00235269 0)
(-0.00783441 -0.00222429 0)
(-0.00615864 -0.00204464 0)
(-0.00463079 -0.00181503 0)
(-0.00328505 -0.00153893 0)
(-0.00215131 -0.00122308 0)
(-0.0012525 -0.000879301 0)
(-0.000600922 -0.000527551 0)
(-0.000193026 -0.000200514 0)
(-3.34944e-06 4.84672e-05 0)
(2.08424e-05 0.000125462 0)
(-6.12852e-06 -9.01053e-05 0)
(-0.000145529 0.000170223 0)
(-0.0005544 0.000664542 0)
(-0.00125612 0.00126385 0)
(-0.00226169 0.0018907 0)
(-0.00356734 0.0024951 0)
(-0.00515358 0.00304545 0)
(-0.00698988 0.00352273 0)
(-0.00903871 0.00391631 0)
(-0.0112581 0.00422106 0)
(-0.013604 0.00443561 0)
(-0.0160313 0.00456111 0)
(-0.0184957 0.00460048 0)
(-0.0209541 0.00455779 0)
(-0.0233652 0.00443797 0)
(-0.0256904 0.00424648 0)
(-0.0278936 0.00398916 0)
(-0.0299419 0.00367209 0)
(-0.0318053 0.00330153 0)
(-0.0334572 0.00288385 0)
(-0.0348744 0.00242551 0)
(-0.0360372 0.00193307 0)
(-0.0369293 0.00141316 0)
(-0.0375379 0.000872533 0)
(-0.0378541 0.000318136 0)
(-0.0378727 -0.000242723 0)
(-0.0375924 -0.000802538 0)
(-0.0370158 -0.00135368 0)
(-0.0361497 -0.00188852 0)
(-0.0350047 -0.00239931 0)
(-0.0335958 -0.00287816 0)
(-0.031942 -0.00331712 0)
(-0.0300667 -0.00370821 0)
(-0.0279969 -0.00404354 0)
(-0.0257641 -0.00431549 0)
(-0.0234032 -0.00451676 0)
(-0.0209528 -0.00464065 0)
(-0.0184544 -0.00468118 0)
(-0.0159523 -0.00463341 0)
(-0.0134924 -0.00449371 0)
(-0.0111218 -0.00426017 0)
(-0.00888725 -0.00393315 0)
(-0.00683428 -0.00351599 0)
(-0.00500498 -0.00301615 0)
(-0.003436 -0.00244688 0)
(-0.00215571 -0.00182979 0)
(-0.00118045 -0.00119889 0)
(-0.000509863 -0.00060593 0)
(-0.000127504 -0.000128925 0)
(-2.74623e-06 0.000105204 0)
(-3.16494e-05 1.13841e-05 0)
(-0.000284073 0.000539028 0)
(-0.000909512 0.00134277 0)
(-0.00189918 0.00227161 0)
(-0.00324831 0.00322873 0)
(-0.00494597 0.00414796 0)
(-0.00696636 0.00498515 0)
(-0.00927275 0.00571223 0)
(-0.0118212 0.00631249 0)
(-0.014563 0.00677716 0)
(-0.0174468 0.0071031 0)
(-0.0204203 0.00729121 0)
(-0.0234312 0.00734523 0)
(-0.0264289 0.00727093 0)
(-0.0293648 0.00707553 0)
(-0.0321928 0.00676725 0)
(-0.0348702 0.00635504 0)
(-0.0373575 0.00584832 0)
(-0.0396191 0.00525688 0)
(-0.0416231 0.00459073 0)
(-0.0433418 0.00386012 0)
(-0.0447514 0.00307544 0)
(-0.0458325 0.00224729 0)
(-0.0465698 0.00138645 0)
(-0.0469528 0.000504022 0)
(-0.0469753 -0.000388452 0)
(-0.0466357 -0.00127911 0)
(-0.0459371 -0.0021559 0)
(-0.0448877 -0.00300671 0)
(-0.0435004 -0.00381924 0)
(-0.041793 -0.00458102 0)
(-0.0397884 -0.00527952 0)
(-0.0375142 -0.00590221 0)
(-0.0350031 -0.00643681 0)
(-0.0322923 -0.00687143 0)
(-0.0294233 -0.00719485 0)
(-0.026442 -0.00739679 0)
(-0.0233976 -0.00746825 0)
(-0.020342 -0.00740196 0)
(-0.0173295 -0.00719282 0)
(-0.0144151 -0.00683856 0)
(-0.0116537 -0.00634051 0)
(-0.00909814 -0.00570473 0)
(-0.00679753 -0.00494346 0)
(-0.004795 -0.00407724 0)
(-0.00312509 -0.00313802 0)
(-0.00181012 -0.0021735 0)
(-0.000856428 -0.00125262 0)
(-0.000262275 -0.000473512 0)
(-2.74806e-05 1.41846e-05 0)
(-5.58391e-05 0.000186116 0)
(-0.000421599 0.0010864 0)
(-0.00126881 0.00227884 0)
(-0.00255384 0.00359958 0)
(-0.00425303 0.00493765 0)
(-0.00634568 0.00621377 0)
(-0.00879787 0.00737279 0)
(-0.0115656 0.00837821 0)
(-0.0145982 0.00920726 0)
(-0.0178406 0.00984739 0)
(-0.0212349 0.0102935 0)
(-0.0247221 0.0105461 0)
(-0.0282435 0.0106098 0)
(-0.0317421 0.0104919 0)
(-0.0351626 0.0102024 0)
(-0.0384533 0.00975233 0)
(-0.0415653 0.00915426 0)
(-0.0444542 0.00842138 0)
(-0.0470791 0.00756749 0)
(-0.0494039 0.00660685 0)
(-0.051397 0.00555404 0)
(-0.0530312 0.00442396 0)
(-0.0542845 0.0032318 0)
(-0.0551395 0.00199306 0)
(-0.0555841 0.000723673 0)
(-0.0556112 -0.000559894 0)
(-0.0552192 -0.00184073 0)
(-0.0544116 -0.00310166 0)
(-0.0531976 -0.00432534 0)
(-0.0515918 -0.00549419 0)
(-0.0496145 -0.00659044 0)
(-0.0472918 -0.00759625 0)
(-0.044655 -0.00849388 0)
(-0.0417413 -0.00926595 0)
(-0.0385927 -0.00989573 0)
(-0.0352566 -0.0103675 0)
(-0.0317846 -0.010667 0)
(-0.0282325 -0.0107818 0)
(-0.024659 -0.0107022 0)
(-0.0211253 -0.0104213 0)
(-0.0176935 -0.00993669 0)
(-0.0144255 -0.00925085 0)
(-0.011381 -0.00837279 0)
(-0.00861604 -0.00731982 0)
(-0.00618058 -0.00611985 0)
(-0.00411645 -0.00481475 0)
(-0.0024539 -0.00346463 0)
(-0.00120856 -0.00215284 0)
(-0.00039657 -0.000992833 0)
(-5.09875e-05 -0.000148213 0)
(-7.81112e-05 0.000430961 0)
(-0.000553807 0.00181104 0)
(-0.00162106 0.00347448 0)
(-0.00320175 0.00525107 0)
(-0.00525214 0.00702032 0)
(-0.00774005 0.008693 0)
(-0.0106219 0.010205 0)
(-0.0138453 0.0115125 0)
(-0.0173524 0.0125875 0)
(-0.0210813 0.0134137 0)
(-0.0249678 0.0139844 0)
(-0.0289469 0.0142997 0)
(-0.0329541 0.014365 0)
(-0.0369263 0.0141898 0)
(-0.0408031 0.0137865 0)
(-0.0445274 0.0131697 0)
(-0.0480455 0.0123557 0)
(-0.0513082 0.0113618 0)
(-0.0542709 0.0102064 0)
(-0.0568934 0.00890841 0)
(-0.0591409 0.00748724 0)
(-0.0609836 0.00596283 0)
(-0.062397 0.00435551 0)
(-0.0633619 0.00268606 0)
(-0.063865 0.000975809 0)
(-0.0638984 -0.000753274 0)
(-0.0634602 -0.00247864 0)
(-0.0625543 -0.0041774 0)
(-0.0611905 -0.00582636 0)
(-0.0593851 -0.00740205 0)
(-0.0571603 -0.00888077 0)
(-0.0545445 -0.0102388 0)
(-0.0515725 -0.0114525 0)
(-0.0482848 -0.0124989 0)
(-0.0447279 -0.0133559 0)
(-0.0409537 -0.0140027 0)
(-0.0370193 -0.0144207 0)
(-0.0329857 -0.0145937 0)
(-0.0289179 -0.014509 0)
(-0.0248832 -0.0141582 0)
(-0.0209501 -0.0135383 0)
(-0.0171873 -0.012653 0)
(-0.0136613 -0.0115141 0)
(-0.0104353 -0.0101438 0)
(-0.00756688 -0.00857698 0)
(-0.00510633 -0.00686441 0)
(-0.00309344 -0.00507686 0)
(-0.00155488 -0.00330929 0)
(-0.000525956 -0.00168623 0)
(-7.26255e-05 -0.000379102 0)
(-9.85657e-05 0.000742101 0)
(-0.000679716 0.00270832 0)
(-0.00196229 0.00492661 0)
(-0.00383548 0.00722459 0)
(-0.00623536 0.00947581 0)
(-0.00911728 0.011584 0)
(-0.0124269 0.0134783 0)
(-0.0161026 0.015109 0)
(-0.0200784 0.0164436 0)
(-0.0242853 0.0174632 0)
(-0.0286528 0.0181595 0)
(-0.0331099 0.0185327 0)
(-0.0375864 0.0185895 0)
(-0.0420141 0.0183413 0)
(-0.0463278 0.0178038 0)
(-0.0504655 0.016995 0)
(-0.0543695 0.0159354 0)
(-0.0579867 0.014647 0)
(-0.0612688 0.0131529 0)
(-0.0641727 0.0114771 0)
(-0.0666607 0.00964441 0)
(-0.0687005 0.00768014 0)
(-0.0702658 0.00561024 0)
(-0.0713358 0.00346122 0)
(-0.071896 0.00126027 0)
(-0.0719379 -0.000964655 0)
(-0.0714593 -0.00318492 0)
(-0.070464 -0.0053714 0)
(-0.0689627 -0.00749457 0)
(-0.0669726 -0.00952454 0)
(-0.0645174 -0.0114312 0)
(-0.0616277 -0.0131842 0)
(-0.0583406 -0.0147539 0)
(-0.0546998 -0.0161108 0)
(-0.0507554 -0.0172271 0)
(-0.0465634 -0.0180765 0)
(-0.0421852 -0.0186354 0)
(-0.0376871 -0.0188836 0)
(-0.0331393 -0.0188051 0)
(-0.0286151 -0.0183895 0)
(-0.0241893 -0.017633 0)
(-0.0199371 -0.01654 0)
(-0.0159323 -0.015125 0)
(-0.0122458 -0.0134145 0)
(-0.00894343 -0.0114493 0)
(-0.00608525 -0.00928802 0)
(-0.00372173 -0.00701024 0)
(-0.0018916 -0.00472 0)
(-0.00064946 -0.00254971 0)
(-9.24773e-05 -0.000674841 0)
(-0.00011754 0.00111595 0)
(-0.000799912 0.00377276 0)
(-0.00229253 0.00663044 0)
(-0.00445399 0.00951675 0)
(-0.00720067 0.012302 0)
(-0.010475 0.0148851 0)
(-0.0142112 0.0171905 0)
(-0.0183375 0.0191642 0)
(-0.0227793 0.0207705 0)
(-0.02746 0.0219885 0)
(-0.0323023 0.0228093 0)
(-0.0372293 0.0232336 0)
(-0.0421653 0.0232696 0)
(-0.0470372 0.0229315 0)
(-0.0517751 0.0222382 0)
(-0.0563131 0.0212118 0)
(-0.0605896 0.0198772 0)
(-0.0645481 0.0182614 0)
(-0.0681373 0.0163927 0)
(-0.0713115 0.0143004 0)
(-0.0740304 0.0120152 0)
(-0.0762601 0.00956807 0)
(-0.0779722 0.00699097 0)
(-0.0791449 0.0043165 0)
(-0.0797624 0.00157807 0)
(-0.0798157 -0.00119001 0)
(-0.079302 -0.00395261 0)
(-0.0782254 -0.00667398 0)
(-0.0765966 -0.00931786 0)
(-0.0744336 -0.0118475 0)
(-0.0717615 -0.0142259 0)
(-0.0686121 -0.0164158 0)
(-0.0650249 -0.0183806 0)
(-0.0610459 -0.0200843 0)
(-0.0567283 -0.0214926 0)
(-0.0521316 -0.0225733 0)
(-0.0473212 -0.0232974 0)
(-0.0423682 -0.02364 0)
(-0.0373479 -0.0235814 0)
(-0.0323392 -0.0231086 0)
(-0.0274233 -0.0222167 0)
(-0.0226824 -0.0209103 0)
(-0.0181977 -0.0192057 0)
(-0.0140484 -0.0171329 0)
(-0.0103099 -0.014738 0)
(-0.00705258 -0.0120859 0)
(-0.00433853 -0.0092634 0)
(-0.00221912 -0.00638158 0)
(-0.000767787 -0.00357858 0)
(-0.000110895 -0.00103206 0)
(-0.000135424 0.0015496 0)
(-0.000915639 0.00499942 0)
(-0.00261379 0.00858126 0)
(-0.00505978 0.0121241 0)
(-0.00815097 0.0154967 0)
(-0.0118168 0.0185952 0)
(-0.0159794 0.0213409 0)
(-0.0205564 0.0236771 0)
(-0.0254639 0.0255663 0)
(-0.0306172 0.0269865 0)
(-0.0359321 0.0279291 0)
(-0.0413253 0.028396 0)
(-0.0467158 0.0283977 0)
(-0.0520256 0.0279514 0)
(-0.0571804 0.0270799 0)
(-0.0621106 0.0258097 0)
(-0.0667512 0.0241707 0)
(-0.0710427 0.022195 0)
(-0.0749312 0.0199165 0)
(-0.0783686 0.0173704 0)
(-0.0813128 0.0145932 0)
(-0.083728 0.0116221 0)
(-0.0855845 0.00849521 0)
(-0.0868592 0.00525162 0)
(-0.0875355 0.00193121 0)
(-0.0876036 -0.00142508 0)
(-0.0870602 -0.00477533 0)
(-0.0859093 -0.00807686 0)
(-0.0841616 -0.0112863 0)
(-0.0818357 -0.0143597 0)
(-0.0789572 -0.0172528 0)
(-0.0755593 -0.0199209 0)
(-0.0716829 -0.0223202 0)
(-0.0673762 -0.0244076 0)
(-0.0626948 -0.0261417 0)
(-0.0577013 -0.0274839 0)
(-0.0524652 -0.0283991 0)
(-0.0470615 -0.0288573 0)
(-0.0415708 -0.0288345 0)
(-0.0360778 -0.0283144 0)
(-0.03067 -0.0272901 0)
(-0.0254369 -0.0257659 0)
(-0.0204679 -0.0237592 0)
(-0.0158512 -0.0213024 0)
(-0.0116724 -0.0184457 0)
(-0.00801301 -0.0152592 0)
(-0.00494751 -0.0118354 0)
(-0.00254004 -0.00829113 0)
(-0.000882395 -0.00476895 0)
(-0.000128304 -0.00144815 0)
(-0.000152596 0.00204098 0)
(-0.00102837 0.00638459 0)
(-0.00292902 0.0107755 0)
(-0.0056572 0.0150442 0)
(-0.00909187 0.0190588 0)
(-0.0131494 0.0227143 0)
(-0.0177398 0.0259302 0)
(-0.0227693 0.0286487 0)
(-0.0281443 0.0308315 0)
(-0.0337718 0.032457 0)
(-0.0395598 0.0335177 0)
(-0.0454188 0.0340175 0)
(-0.0512622 0.0339701 0)
(-0.0570072 0.0333964 0)
(-0.0625753 0.0323234 0)
(-0.0678933 0.0307828 0)
(-0.0728932 0.0288096 0)
(-0.0775129 0.0264416 0)
(-0.081696 0.0237187 0)
(-0.0853926 0.0206822 0)
(-0.0885589 0.0173747 0)
(-0.0911577 0.0138399 0)
(-0.093158 0.0101224 0)
(-0.0945357 0.00626771 0)
(-0.0952732 0.00232255 0)
(-0.09536 -0.00166531 0)
(-0.0947925 -0.00564697 0)
(-0.093574 -0.00957257 0)
(-0.0917153 -0.0133914 0)
(-0.0892349 -0.017052 0)
(-0.0861589 -0.0205023 0)
(-0.0825213 -0.0236902 0)
(-0.0783641 -0.0265639 0)
(-0.073737 -0.0290726 0)
(-0.0686979 -0.0311677 0)
(-0.0633123 -0.0328032 0)
(-0.0576529 -0.0339375 0)
(-0.0517991 -0.0345346 0)
(-0.0458365 -0.0345654 0)
(-0.0398554 -0.0340098 0)
(-0.0339504 -0.0328579 0)
(-0.0282184 -0.0311126 0)
(-0.0227578 -0.0287915 0)
(-0.0176664 -0.0259286 0)
(-0.0130407 -0.0225769 0)
(-0.00897435 -0.0188106 0)
(-0.00555439 -0.0147269 0)
(-0.00285807 -0.0104474 0)
(-0.000995038 -0.00611849 0)
(-0.000145124 -0.00192147 0)
(-0.000169388 0.00258885 0)
(-0.00113961 0.00792613 0)
(-0.00324149 0.0132113 0)
(-0.00625139 0.0182761 0)
(-0.0100303 0.0229888 0)
(-0.0144816 0.027244 0)
(-0.0195026 0.0309609 0)
(-0.0249882 0.0340817 0)
(-0.0308344 0.0365689 0)
(-0.0369392 0.0384022 0)
(-0.0432031 0.0395764 0)
(-0.0495297 0.0400986 0)
(-0.0558268 0.0399862 0)
(-0.0620067 0.0392648 0)
(-0.067987 0.0379663 0)
(-0.073691 0.0361279 0)
(-0.0790478 0.0337905 0)
(-0.083993 0.0309979 0)
(-0.0884683 0.0277964 0)
(-0.092422 0.0242335 0)
(-0.0958091 0.0203584 0)
(-0.0985909 0.0162212 0)
(-0.100736 0.0118733 0)
(-0.102218 0.007367 0)
(-0.10302 0.00275571 0)
(-0.10313 -0.00190577 0)
(-0.102545 -0.00656141 0)
(-0.101265 -0.011154 0)
(-0.099303 -0.0156253 0)
(-0.0966761 -0.0199161 0)
(-0.0934107 -0.0239664 0)
(-0.089541 -0.0277159 0)
(-0.0851098 -0.0311047 0)
(-0.0801681 -0.0340739 0)
(-0.0747756 -0.0365666 0)
(-0.0690001 -0.0385291 0)
(-0.0629176 -0.0399126 0)
(-0.0566117 -0.040674 0)
(-0.0501727 -0.0407785 0)
(-0.0436973 -0.0402008 0)
(-0.037287 -0.0389274 0)
(-0.0310469 -0.0369588 0)
(-0.0250846 -0.0343113 0)
(-0.0195087 -0.0310196 0)
(-0.014427 -0.0271386 0)
(-0.009946 -0.0227454 0)
(-0.00616595 -0.0179412 0)
(-0.00317737 -0.0128515 0)
(-0.00110754 -0.00762684 0)
(-0.000161746 -0.00245135 0)
(-0.000186094 0.00319278 0)
(-0.00125076 0.00962354 0)
(-0.00355448 0.0158888 0)
(-0.0068477 0.021821 0)
(-0.0109736 0.0272889 0)
(-0.0158225 0.0321876 0)
(-0.0212789 0.036437 0)
(-0.0272256 0.0399806 0)
(-0.0335482 0.0427827 0)
(-0.0401352 0.0448259 0)
(-0.046879 0.0461084 0)
(-0.0536765 0.0466414 0)
(-0.0604294 0.0464473 0)
(-0.0670454 0.0455568 0)
(-0.073438 0.0440079 0)
(-0.0795273 0.0418438 0)
(-0.0852399 0.0391117 0)
(-0.0905092 0.0358622 0)
(-0.0952752 0.0321479 0)
(-0.099485 0.0280232 0)
(-0.103092 0.0235438 0)
(-0.106058 0.0187667 0)
(-0.108348 0.0137499 0)
(-0.109939 0.00855248 0)
(-0.110809 0.0032349 0)
(-0.110947 -0.00214109 0)
(-0.110349 -0.00751226 0)
(-0.109016 -0.012814 0)
(-0.106958 -0.0179804 0)
(-0.104193 -0.0229443 0)
(-0.100746 -0.0276375 0)
(-0.0966516 -0.0319912 0)
(-0.0919529 -0.0359369 0)
(-0.0867019 -0.039407 0)
(-0.0809593 -0.0423359 0)
(-0.0747953 -0.0446613 0)
(-0.0682888 -0.0463261 0)
(-0.0615273 -0.0472797 0)
(-0.0546063 -0.0474801 0)
(-0.0476284 -0.0468958 0)
(-0.0407027 -0.0455086 0)
(-0.0339429 -0.0433152 0)
(-0.0274668 -0.0403298 0)
(-0.0213938 -0.0365864 0)
(-0.0158443 -0.0321406 0)
(-0.0109381 -0.0270716 0)
(-0.00678935 -0.021484 0)
(-0.00350219 -0.0155071 0)
(-0.00122169 -0.00929575 0)
(-0.000178528 -0.00303813 0)
(-0.00020297 0.00385305 0)
(-0.00136313 0.0114779 0)
(-0.00387109 0.0188101 0)
(-0.00745132 0.0256821 0)
(-0.0119291 0.0319635 0)
(-0.0171812 0.0375503 0)
(-0.0230794 0.0423642 0)
(-0.0294938 0.0463511 0)
(-0.0362991 0.0494786 0)
(-0.0433741 0.0517332 0)
(-0.0506028 0.0531178 0)
(-0.0578749 0.0536492 0)
(-0.0650863 0.0533553 0)
(-0.0721399 0.0522736 0)
(-0.0789453 0.0504484 0)
(-0.0854195 0.0479299 0)
(-0.0914868 0.0447724 0)
(-0.0970788 0.0410334 0)
(-0.102134 0.0367724 0)
(-0.106599 0.0320508 0)
(-0.110426 0.0269312 0)
(-0.113576 0.0214774 0)
(-0.116014 0.0157543 0)
(-0.117715 0.00982766 0)
(-0.118658 0.00376485 0)
(-0.11883 -0.00236539 0)
(-0.118227 -0.00849268 0)
(-0.116847 -0.014545 0)
(-0.114702 -0.0204487 0)
(-0.111807 -0.0261284 0)
(-0.108187 -0.0315077 0)
(-0.103876 -0.0365089 0)
(-0.0989175 -0.0410546 0)
(-0.0933627 -0.0450677 0)
(-0.0872739 -0.0484733 0)
(-0.080723 -0.0511998 0)
(-0.0737916 -0.0531808 0)
(-0.0665708 -0.0543568 0)
(-0.0591613 -0.0546777 0)
(-0.0516719 -0.0541047 0)
(-0.0442195 -0.0526132 0)
(-0.0369269 -0.0501949 0)
(-0.0299224 -0.0468606 0)
(-0.0233375 -0.0426423 0)
(-0.0173056 -0.0375954 0)
(-0.0119608 -0.0318004 0)
(-0.00743173 -0.0253643 0)
(-0.00383674 -0.0184208 0)
(-0.00133919 -0.011129 0)
(-0.00019579 -0.00368306 0)
(-0.000220237 0.0045706 0)
(-0.00147789 0.0134917 0)
(-0.0041942 0.0219791 0)
(-0.00806709 0.0298648 0)
(-0.0129035 0.0370188 0)
(-0.0185665 0.043339 0)
(-0.0249142 0.0487497 0)
(-0.0318042 0.0532004 0)
(-0.0390993 0.0566631 0)
(-0.0466685 0.0591297 0)
(-0.0543872 0.0606093 0)
(-0.0621376 0.0611251 0)
(-0.0698099 0.0607124 0)
(-0.0773019 0.0594159 0)
(-0.0845198 0.0572877 0)
(-0.0913776 0.0543854 0)
(-0.0977978 0.0507712 0)
(-0.10371 0.0465098 0)
(-0.109053 0.0416684 0)
(-0.113771 0.0363155 0)
(-0.117817 0.0305206 0)
(-0.121151 0.0243546 0)
(-0.123738 0.0178889 0)
(-0.125552 0.0111962 0)
(-0.126572 0.0043506 0)
(-0.126785 -0.00257233 0)
(-0.126182 -0.00949514 0)
(-0.124766 -0.0163385 0)
(-0.122542 -0.023021 0)
(-0.119528 -0.0294592 0)
(-0.115745 -0.035568 0)
(-0.111228 -0.0412609 0)
(-0.106017 -0.0464507 0)
(-0.100166 -0.0510506 0)
(-0.0937367 -0.0549756 0)
(-0.0868018 -0.0581439 0)
(-0.0794455 -0.0604786 0)
(-0.0717627 -0.0619103 0)
(-0.0638586 -0.0623792 0)
(-0.0558487 -0.0618379 0)
(-0.0478576 -0.0602539 0)
(-0.040018 -0.0576125 0)
(-0.0324692 -0.0539194 0)
(-0.0253553 -0.0492034 0)
(-0.0188239 -0.0435185 0)
(-0.0130241 -0.0369456 0)
(-0.00810004 -0.0295941 0)
(-0.00418502 -0.0216015 0)
(-0.00146166 -0.0131326 0)
(-0.000213829 -0.00438826 0)
(-0.000238084 0.00534692 0)
(-0.00159607 0.0156688 0)
(-0.0045264 0.0254016 0)
(-0.00869945 0.0343761 0)
(-0.0139031 0.042463 0)
(-0.0199862 0.0495623 0)
(-0.0267926 0.055602 0)
(-0.0341666 0.0605363 0)
(-0.0419592 0.0643431 0)
(-0.0500288 0.0670212 0)
(-0.0582419 0.068587 0)
(-0.0664735 0.069072 0)
(-0.0746075 0.0685198 0)
(-0.0825374 0.0669836 0)
(-0.0901657 0.0645243 0)
(-0.0974041 0.061208 0)
(-0.104173 0.0571052 0)
(-0.110402 0.0522887 0)
(-0.116028 0.0468335 0)
(-0.120996 0.0408153 0)
(-0.125259 0.0343112 0)
(-0.128776 0.0273985 0)
(-0.131512 0.0201555 0)
(-0.133442 0.0126616 0)
(-0.134543 0.00499736 0)
(-0.134801 -0.00275504 0)
(-0.134209 -0.0105113 0)
(-0.132765 -0.0181849 0)
(-0.130474 -0.0256869 0)
(-0.127351 -0.0329257 0)
(-0.123418 -0.0398076 0)
(-0.118706 -0.0462367 0)
(-0.113256 -0.052116 0)
(-0.107119 -0.0573484 0)
(-0.100356 -0.0618378 0)
(-0.0930428 -0.0654911 0)
(-0.0852641 -0.0682201 0)
(-0.0771181 -0.069944 0)
(-0.0687149 -0.0705919 0)
(-0.0601763 -0.0701059 0)
(-0.0516349 -0.0684442 0)
(-0.0432336 -0.0655836 0)
(-0.0351233 -0.0615236 0)
(-0.0274617 -0.0562879 0)
(-0.0204114 -0.049928 0)
(-0.0141375 -0.0425244 0)
(-0.00880089 -0.0341883 0)
(-0.00455086 -0.0250613 0)
(-0.00159059 -0.0153142 0)
(-0.000232915 -0.00515666 0)
(-0.000256678 0.00618406 0)
(-0.00171861 0.0180144 0)
(-0.00487002 0.029085 0)
(-0.00935239 0.0392249 0)
(-0.0149335 0.0483057 0)
(-0.0214472 0.05623 0)
(-0.0287224 0.0629303 0)
(-0.0365895 0.0683671 0)
(-0.044887 0.0725255 0)
(-0.0534625 0.0754126 0)
(-0.0621733 0.0770541 0)
(-0.070887 0.0774909 0)
(-0.0794817 0.0767765 0)
(-0.0878463 0.0749742 0)
(-0.0958802 0.0721544 0)
(-0.103493 0.068393 0)
(-0.110604 0.0637692 0)
(-0.117142 0.0583648 0)
(-0.123045 0.0522627 0)
(-0.128257 0.0455464 0)
(-0.132731 0.0383001 0)
(-0.136428 0.0306081 0)
(-0.139313 0.0225552 0)
(-0.141359 0.014227 0)
(-0.142546 0.0057103 0)
(-0.142856 -0.00290623 0)
(-0.142282 -0.0115319 0)
(-0.140821 -0.0200733 0)
(-0.138476 -0.0284341 0)
(-0.13526 -0.0365148 0)
(-0.131192 -0.0442129 0)
(-0.1263 -0.0514232 0)
(-0.120625 -0.0580385 0)
(-0.114215 -0.0639505 0)
(-0.107131 -0.0690515 0)
(-0.0994487 -0.0732361 0)
(-0.0912534 -0.0764034 0)
(-0.0826464 -0.0784597 0)
(-0.073742 -0.0793213 0)
(-0.0646682 -0.0789182 0)
(-0.0555661 -0.0771969 0)
(-0.0465887 -0.0741245 0)
(-0.0378993 -0.0696915 0)
(-0.0296701 -0.0639157 0)
(-0.0220794 -0.0568443 0)
(-0.01531 -0.0485563 0)
(-0.00954054 -0.0391644 0)
(-0.00493788 -0.0288142 0)
(-0.00172741 -0.0176835 0)
(-0.000253299 -0.00599192 0)
(-0.000276169 0.00708447 0)
(-0.00184636 0.0205348 0)
(-0.00522718 0.0330382 0)
(-0.0100295 0.0444218 0)
(-0.0159996 0.0545579 0)
(-0.0229555 0.0633528 0)
(-0.0307102 0.0707445 0)
(-0.0390794 0.076701 0)
(-0.0478885 0.0812163 0)
(-0.056974 0.0843077 0)
(-0.0661839 0.0860117 0)
(-0.075378 0.0863805 0)
(-0.084429 0.0854792 0)
(-0.0932215 0.0833822 0)
(-0.101652 0.080171 0)
(-0.109629 0.0759321 0)
(-0.117072 0.0707546 0)
(-0.123908 0.0647294 0)
(-0.130076 0.057948 0)
(-0.135522 0.0505019 0)
(-0.140201 0.0424824 0)
(-0.144072 0.0339804 0)
(-0.147102 0.0250872 0)
(-0.149265 0.0158943 0)
(-0.150539 0.00649433 0)
(-0.150909 -0.00301821 0)
(-0.150363 -0.0125466 0)
(-0.148897 -0.0219909 0)
(-0.146513 -0.0312479 0)
(-0.14322 -0.0402103 0)
(-0.139035 -0.048767 0)
(-0.133984 -0.0568034 0)
(-0.128102 -0.0642016 0)
(-0.121438 -0.0708419 0)
(-0.114051 -0.0766041 0)
(-0.106012 -0.0813693 0)
(-0.0974112 -0.0850226 0)
(-0.0883495 -0.0874556 0)
(-0.0789456 -0.0885703 0)
(-0.0693335 -0.0882821 0)
(-0.0596623 -0.0865241 0)
(-0.0500956 -0.0832508 0)
(-0.0408098 -0.0784425 0)
(-0.0319922 -0.0721083 0)
(-0.0238384 -0.0642898 0)
(-0.0165499 -0.0550635 0)
(-0.0103249 -0.0445427 0)
(-0.00534948 -0.0328771 0)
(-0.00187348 -0.0202519 0)
(-0.000275223 -0.00689846 0)
(-0.000296696 0.00805105 0)
(-0.00198007 0.023237 0)
(-0.00559979 0.0372713 0)
(-0.0107339 0.0499783 0)
(-0.0171059 0.0612318 0)
(-0.0245163 0.0709422 0)
(-0.0327614 0.0790545 0)
(-0.0416411 0.0855455 0)
(-0.0509673 0.0904203 0)
(-0.0605648 0.0937081 0)
(-0.0702719 0.0954582 0)
(-0.0799413 0.0957361 0)
(-0.0894399 0.0946201 0)
(-0.0986489 0.0921975 0)
(-0.107463 0.0885623 0)
(-0.115789 0.0838124 0)
(-0.123546 0.0780478 0)
(-0.130664 0.0713693 0)
(-0.137082 0.0638772 0)
(-0.142748 0.0556711 0)
(-0.147618 0.0468494 0)
(-0.151655 0.0375097 0)
(-0.154825 0.027749 0)
(-0.157102 0.0176643 0)
(-0.158466 0.00735378 0)
(-0.1589 -0.00308306 0)
(-0.158392 -0.0135439 0)
(-0.156935 -0.0239232 0)
(-0.154529 -0.0341109 0)
(-0.15118 -0.0439926 0)
(-0.146901 -0.0534489 0)
(-0.141715 -0.0623554 0)
(-0.135652 -0.0705838 0)
(-0.128759 -0.0780023 0)
(-0.12109 -0.0844774 0)
(-0.112716 -0.0898756 0)
(-0.103726 -0.0940665 0)
(-0.0942217 -0.0969255 0)
(-0.0843252 -0.0983377 0)
(-0.0741756 -0.0982019 0)
(-0.0639303 -0.0964352 0)
(-0.0537635 -0.0929773 0)
(-0.0438652 -0.0877953 0)
(-0.0344385 -0.0808877 0)
(-0.0256977 -0.0722885 0)
(-0.0178649 -0.0620701 0)
(-0.0111595 -0.0503456 0)
(-0.00578893 -0.0372686 0)
(-0.00203009 -0.0230324 0)
(-0.000298919 -0.00788136 0)
(-0.000318391 0.00908708 0)
(-0.00212049 0.0261292 0)
(-0.00598969 0.0417955 0)
(-0.0114688 0.0559075 0)
(-0.0182563 0.0683404 0)
(-0.026134 0.0790101 0)
(-0.03488 0.0878697 0)
(-0.0442777 0.094907 0)
(-0.0541244 0.10014 0)
(-0.0642327 0.103612 0)
(-0.0744314 0.105388 0)
(-0.084566 0.105549 0)
(-0.0944982 0.104187 0)
(-0.104106 0.101405 0)
(-0.113283 0.0973108 0)
(-0.121935 0.0920151 0)
(-0.129984 0.0856297 0)
(-0.137361 0.0782656 0)
(-0.144008 0.0700327 0)
(-0.149875 0.0610385 0)
(-0.154919 0.0513886 0)
(-0.159107 0.0411866 0)
(-0.162407 0.0305351 0)
(-0.164795 0.0195361 0)
(-0.166249 0.00829207 0)
(-0.166752 -0.00309275 0)
(-0.166292 -0.0145115 0)
(-0.16486 -0.0258534 0)
(-0.162453 -0.0370027 0)
(-0.159072 -0.0478382 0)
(-0.154727 -0.0582324 0)
(-0.149434 -0.0680519 0)
(-0.143223 -0.0771574 0)
(-0.136131 -0.0854048 0)
(-0.128211 -0.0926463 0)
(-0.119531 -0.0987331 0)
(-0.110175 -0.103517 0)
(-0.100248 -0.106857 0)
(-0.0898722 -0.108617 0)
(-0.079192 -0.108677 0)
(-0.0683723 -0.106937 0)
(-0.0575981 -0.103316 0)
(-0.0470731 -0.0977679 0)
(-0.0370177 -0.0902763 0)
(-0.0276659 -0.0808656 0)
(-0.0192621 -0.0696022 0)
(-0.0120496 -0.0565979 0)
(-0.00625941 -0.0420098 0)
(-0.00219852 -0.0260398 0)
(-0.00032462 -0.00894635 0)
(-0.000341389 0.0101962 0)
(-0.00226836 0.0292204 0)
(-0.00639867 0.0466233 0)
(-0.0122369 0.0622231 0)
(-0.0194544 0.0758973 0)
(-0.0278124 0.087568 0)
(-0.0370693 0.0971985 0)
(-0.0469905 0.10479 0)
(-0.0573581 0.110375 0)
(-0.0679722 0.114015 0)
(-0.0786519 0.115792 0)
(-0.0892355 0.115803 0)
(-0.0995804 0.11416 0)
(-0.109562 0.110982 0)
(-0.119074 0.106392 0)
(-0.128023 0.100514 0)
(-0.136333 0.0934737 0)
(-0.143938 0.0853927 0)
(-0.150784 0.0763904 0)
(-0.156824 0.0665827 0)
(-0.162021 0.0560819 0)
(-0.166341 0.0449975 0)
(-0.169758 0.0334368 0)
(-0.172247 0.021506 0)
(-0.173789 0.00931133 0)
(-0.174367 -0.00303943 0)
(-0.173966 -0.0154357 0)
(-0.172576 -0.0277626 0)
(-0.17019 -0.0398994 0)
(-0.166806 -0.0517188 0)
(-0.162427 -0.0630861 0)
(-0.157066 -0.073859 0)
(-0.150744 -0.0838873 0)
(-0.143493 -0.0930143 0)
(-0.135362 -0.101078 0)
(-0.126412 -0.107911 0)
(-0.116725 -0.113349 0)
(-0.106403 -0.117229 0)
(-0.0955697 -0.119394 0)
(-0.0843732 -0.119702 0)
(-0.0729851 -0.11803 0)
(-0.0616009 -0.114277 0)
(-0.0504386 -0.108376 0)
(-0.0397365 -0.100296 0)
(-0.0297502 -0.0900464 0)
(-0.0207483 -0.0776869 0)
(-0.0130004 -0.0633259 0)
(-0.006764 -0.0471235 0)
(-0.00238004 -0.02929 0)
(-0.000352566 -0.0100998 0)
(-0.000365834 0.0113824 0)
(-0.00242445 0.0325206 0)
(-0.0068286 0.0517682 0)
(-0.0130412 0.0689399 0)
(-0.0207039 0.0839162 0)
(-0.0295549 0.0966271 0)
(-0.0393314 0.107048 0)
(-0.0497793 0.115196 0)
(-0.0606646 0.121122 0)
(-0.0717743 0.124906 0)
(-0.082918 0.126652 0)
(-0.0939272 0.126477 0)
(-0.104656 0.124513 0)
(-0.114978 0.120898 0)
(-0.124786 0.115772 0)
(-0.133993 0.109275 0)
(-0.142524 0.101545 0)
(-0.150318 0.0927164 0)
(-0.157325 0.0829186 0)
(-0.163504 0.0722752 0)
(-0.168821 0.0609053 0)
(-0.173249 0.0489234 0)
(-0.176763 0.036441 0)
(-0.179343 0.0235675 0)
(-0.180968 0.0104119 0)
(-0.181623 -0.00291566 0)
(-0.181293 -0.0163021 0)
(-0.179963 -0.0296295 0)
(-0.177625 -0.0427733 0)
(-0.174269 -0.0556012 0)
(-0.169896 -0.0679721 0)
(-0.16451 -0.0797351 0)
(-0.158125 -0.0907298 0)
(-0.150766 -0.100787 0)
(-0.142472 -0.109728 0)
(-0.133301 -0.11737 0)
(-0.123327 -0.123527 0)
(-0.112649 -0.128012 0)
(-0.101391 -0.130647 0)
(-0.0897019 -0.131262 0)
(-0.0777595 -0.129709 0)
(-0.0657693 -0.125864 0)
(-0.0539639 -0.119633 0)
(-0.0426002 -0.110966 0)
(-0.0319569 -0.0998564 0)
(-0.0223296 -0.0863526 0)
(-0.0140167 -0.0705579 0)
(-0.00730585 -0.0526343 0)
(-0.00257599 -0.0328009 0)
(-0.000383007 -0.0113489 0)
(-0.000391892 0.0126502 0)
(-0.00258967 0.0360406 0)
(-0.00728158 0.0572446 0)
(-0.013885 0.0760735 0)
(-0.0220084 0.0924113 0)
(-0.031365 0.106198 0)
(-0.041668 0.117423 0)
(-0.0526426 0.126123 0)
(-0.0640374 0.132371 0)
(-0.0756264 0.136269 0)
(-0.0872092 0.137945 0)
(-0.0986116 0.137541 0)
(-0.109684 0.13521 0)
(-0.120302 0.131113 0)
(-0.13036 0.125407 0)
(-0.139773 0.118251 0)
(-0.148473 0.109798 0)
(-0.156405 0.100193 0)
(-0.163525 0.0895764 0)
(-0.169799 0.0780794 0)
(-0.175199 0.0658274 0)
(-0.179702 0.0529393 0)
(-0.183289 0.0395299 0)
(-0.185941 0.0257107 0)
(-0.187642 0.011592 0)
(-0.188376 -0.00271481 0)