/*--------------------------------*- C++ -*----------------------------------*\
| =========                 |                                                 |
| \\      /  F ield         | OpenFOAM: The Open Source CFD Toolbox           |
|  \\    /   O peration     | Version:  v2012                                 |
|   \\  /    A nd           | Website:  www.openfoam.com                      |
|    \\/     M anipulation  |                                                 |
\*---------------------------------------------------------------------------*/
FoamFile
{
    version     2.0;
    format      ascii;
    class       volScalarField;
    location    "0.1";
    object      p;
}
// * * * * * * * * * * * * * * * * * * * * * * * * * * * * * * * * * * * * * //

dimensions      [0 2 -2 0 0 0 0];


internalField   nonuniform List<scalar> 
1250
(
0.037356
0.0439288
0.0503841
0.0566334
0.0625894
0.0681674
0.0732863
0.0778703
0.0818509
0.0851679
0.0877721
0.0896266
0.0907091
0.0910143
0.0905559
0.0893699
0.0875175
0.0850885
0.0822063
0.0790336
0.0757793
0.0727042
0.0701322
0.0684663
0.0679622
0.0370641
0.0430059
0.048841
0.0544898
0.0598743
0.0649187
0.0695512
0.0737051
0.0773207
0.0803466
0.0827412
0.0844751
0.0855321
0.0859119
0.0856316
0.0847282
0.0832608
0.0813131
0.0789962
0.0764513
0.0738519
0.0714032
0.0693424
0.0679582
0.0674584
0.0368314
0.042303
0.0476767
0.0528799
0.0578413
0.0624918
0.0667664
0.0706047
0.0739531
0.076766
0.079007
0.0806509
0.0816852
0.0821117
0.0819478
0.0812289
0.0800095
0.078365
0.0763925
0.0742125
0.0719681
0.0698234
0.067961
0.0665709
0.0657959
0.0366331
0.0417494
0.0467752
0.0516434
0.0562878
0.0606444
0.0646526
0.0682567
0.0714073
0.0740622
0.0761883
0.0777627
0.078774
0.079224
0.0791288
0.07852
0.0774458
0.0759719
0.0741817
0.0721758
0.0700711
0.0680019
0.0661118
0.0644941
0.0632092
0.0364398
0.0412628
0.0460022
0.0505954
0.0549805
0.0590975
0.0628892
0.0663035
0.0692939
0.0718206
0.0738524
0.0753673
0.0763541
0.0768132
0.0767578
0.0762151
0.0752262
0.0738465
0.0721457
0.0702061
0.0681212
0.0660005
0.0639562
0.0619851
0.0600605
0.0362434
0.0408333
0.0453461
0.0497228
0.0539047
0.0578347
0.0614585
0.0647262
0.0675931
0.0700209
0.0719791
0.0734456
0.074408
0.0748647
0.0748254
0.0743118
0.0733575
0.0720082
0.0703209
0.0683613
0.0662028
0.0639352
0.0616468
0.0592443
0.056623
0.0360351
0.040452
0.0447977
0.0490159
0.0530505
0.0568463
0.0603507
0.0635151
0.0662959
0.0686551
0.0705617
0.0719928
0.072934
0.0733809
0.0733388
0.0728238
0.0718623
0.0704908
0.0687546
0.0667055
0.0644002
0.0619139
0.0593175
0.0564382
0.0531037
0.0358033
0.0401043
0.0443396
0.0484547
0.0523953
0.0561073
0.0595391
0.0626426
0.065374
0.0676949
0.0695731
0.070984
0.0719106
0.0723448
0.0722875
0.0717491
0.0707489
0.0693151
0.067483
0.0652924
0.0627868
0.0600311
0.0570845
0.0537042
0.0496606
0.0355359
0.0397756
0.0439547
0.0480202
0.0519184
0.0555959
0.0590009
0.0620852
0.0648041
0.0671181
0.068993
0.0704016
0.0713239
0.0717478
0.0716694
0.0710935
0.0700328
0.0685077
0.0665452
0.0641754
0.0614314
0.0583712
0.055047
0.0511542
0.0464136
0.0352194
0.0394511
0.0436273
0.0476955
0.0516022
0.0552938
0.058718
0.0618254
0.06457
0.0669101
0.0688092
0.0702369
0.0711694
0.0715905
0.0714914
0.0708712
0.0697364
0.0681009
0.0659843
0.0634087
0.0603993
0.0570104
0.0532906
0.0488799
0.043455
0.0348395
0.0391158
0.0433416
0.0474644
0.0514304
0.0551851
0.058675
0.0618491
0.0646592
0.0670609
0.0690147
0.0704865
0.0714485
0.0718797
0.0717663
0.0711019
0.0698874
0.0681303
0.0658444
0.0630453
0.0597522
0.0560179
0.0518902
0.0469582
0.040858
0.0343806
0.0387536
0.0430814
0.047311
0.0513876
0.0552553
0.0588588
0.0621449
0.0650626
0.0675644
0.0696069
0.071152
0.0721673
0.0726269
0.0725117
0.07181
0.0705169
0.0686346
0.0661716
0.0631382
0.0595492
0.0554578
0.0509129
0.0454556
0.0386836
0.0338256
0.0383477
0.0428303
0.0472195
0.051459
0.055491
0.059258
0.0627037
0.0657741
0.0684177
0.070587
0.0722391
0.0733367
0.0738485
0.07375
0.0730239
0.07166
0.0696553
0.0670134
0.0637407
0.0598484
0.0553915
0.0504215
0.0444328
0.0369856
0.0331557
0.03788
0.0425712
0.0471739
0.0516301
0.0558796
0.0598622
0.0635181
0.0667896
0.0696207
0.0719592
0.073757
0.0749712
0.0755648
0.0755075
0.0747763
0.0733554
0.0712369
0.0684202
0.0649077
0.0607084
0.0558796
0.0504767
0.0439475
0.0358148
0.0323511
0.0373314
0.0422861
0.0471578
0.0518864
0.056409
0.060662
0.0645821
0.0681068
0.0711756
0.0737307
0.0757181
0.077089
0.0778
0.0778147
0.0771037
0.0756458
0.073428
0.0704452
0.0666967
0.0621894
0.0569839
0.0511397
0.0440576
0.0352221
0.0313902
0.0366816
0.0419561
0.0471541
0.052213
0.0570669
0.0616485
0.0658903
0.0697249
0.0730863
0.0759106
0.0781375
0.0797114
0.0805819
0.0807057
0.0800469
0.0785781
0.0762809
0.073146
0.0691693
0.0643557
0.0587694
0.0524748
0.0448238
0.0352614
0.03025
0.0359091
0.0415613
0.047145
0.0525946
0.057841
0.062813
0.0674382
0.071644
0.0753582
0.0785103
0.0810329
0.0828626
0.0839416
0.0842187
0.0836509
0.0822038
0.0798532
0.0765851
0.0723918
0.067276
0.061306
0.054551
0.0463118
0.0359917
0.0289066
0.0349912
0.0410809
0.0471117
0.0530151
0.0587185
0.0641464
0.0692213
0.0738648
0.0779978
0.0815427
0.084424
0.0865698
0.0879138
0.0883961
0.0879655
0.0865798
0.0842082
0.0808313
0.0764372
0.0710263
0.0646704
0.0574442
0.048594
0.0374793
0.027335
0.0339047
0.0404935
0.0470351
0.0534582
0.0596864
0.0656397
0.0712354
0.0763884
0.0810127
0.0850223
0.0883327
0.090863
0.0925368
0.0932846
0.0930456
0.0917689
0.0894158
0.0859607
0.0813863
0.0756903
0.0689481
0.0612393
0.0517523
0.0397998
0.0255103
0.0326258
0.039777
0.0468954
0.0539067
0.060731
0.0672836
0.0734761
0.0792165
0.0844109
0.0889645
0.092783
0.0957747
0.0978524
0.0989354
0.0989518
0.0978404
0.0955535
0.0920575
0.0873292
0.081362
0.0742347
0.0660318
0.0558792
0.04304
0.023408
0.0311312
0.0389096
0.0466727
0.0543436
0.0618386
0.0690685
0.0759388
0.0823505
0.0882012
0.0933862
0.0978004
0.10134
0.103906
0.105405
0.105751
0.104871
0.102707
0.0992163
0.0943668
0.088147
0.0806386
0.0719304
0.0610808
0.0472999
0.0210049
0.0293987
0.0378704
0.0463479
0.0547519
0.0629955
0.0709847
0.0786191
0.0857923
0.0923927
0.0983051
0.103413
0.107598
0.110748
0.112754
0.113516
0.112946
0.110973
0.107543
0.102613
0.0961648
0.0882826
0.0790587
0.0674785
0.0526948
0.0182805
0.0274082
0.03664
0.0459028
0.0551155
0.0641881
0.0730226
0.0815125
0.0895436
0.096995
0.10374
0.109648
0.114589
0.118431
0.121049
0.122327
0.12216
0.120459
0.117155
0.112195
0.105551
0.0973067
0.0875584
0.0752117
0.0593581
0.0152183
0.025143
0.0352017
0.0453214
0.0554197
0.0654044
0.0751734
0.0846148
0.0936066
0.102018
0.10971
0.116539
0.122356
0.127013
0.130365
0.132274
0.132616
0.131282
0.128186
0.123259
0.116459
0.107871
0.0975922
0.0844411
0.0674437
0.0118077
0.0225914
0.0335433
0.0445911
0.0556524
0.0666335
0.0774293
0.0879225
0.0979837
0.107472
0.116236
0.124116
0.130945
0.136555
0.140779
0.143454
0.144431
0.143578
0.140787
0.135968
0.129066
0.12016
0.109347
0.0953521
0.0771296
0.00804535
0.0197482
0.0316577
0.0437038
0.055805
0.0678675
0.079784
0.0914328
0.102678
0.113368
0.123338
0.132413
0.140406
0.147124
0.152376
0.155971
0.157731
0.157495
0.155126
0.150511
0.143573
0.134383
0.123039
0.108159
0.0886218
0.00393771
0.0166168
0.0295456
0.0426574
0.0558736
0.0691017
0.0822336
0.0951444
0.107692
0.119715
0.131037
0.141463
0.150786
0.158789
0.165248
0.169942
0.172658
0.173199
0.171395
0.1671
0.160209
0.150785
0.138919
0.123111
0.102159
-0.000496828
0.0132112
0.0272162
0.0414573
0.0558603
0.0703359
0.084777
0.0990573
0.113029
0.126525
0.139352
0.1513
0.162138
0.171621
0.179492
0.185492
0.189366
0.190876
0.189809
0.185977
0.179242
0.169648
0.157276
0.140498
0.118019
-0.00522607
0.00955754
0.0246899
0.0401179
0.0557742
0.071575
0.0874166
0.103173
0.118695
0.133806
0.148302
0.161956
0.174512
0.185694
0.195209
0.202754
0.208025
0.210733
0.210611
0.20742
0.200978
0.1913
0.178452
0.160658
0.136527
-0.0102018
0.00569642
0.0219992
0.0386638
0.0556325
0.0728299
0.0901585
0.107496
0.124692
0.141565
0.157904
0.17346
0.187956
0.201082
0.212505
0.22187
0.228819
0.232998
0.234076
0.231748
0.225771
0.216123
0.202845
0.183991
0.158062
-0.0153579
0.00168398
0.0191899
0.0371307
0.0554612
0.0741176
0.0930121
0.112029
0.131022
0.149808
0.168166
0.185835
0.202512
0.217855
0.231484
0.24299
0.251947
0.257926
0.260514
0.259325
0.254035
0.24457
0.230928
0.21097
0.183075
-0.0206096
-0.0024073
0.0163221
0.0355657
0.0552949
0.0754609
0.0959897
0.116777
0.137684
0.15853
0.179091
0.199094
0.218214
0.236074
0.252247
0.266263
0.277618
0.285793
0.290275
0.29057
0.286254
0.277172
0.263265
0.242161
0.212101
-0.0258535
-0.00648864
0.0134691
0.0340268
0.0551759
0.076887
0.0991047
0.121741
0.14467
0.16772
0.190669
0.213236
0.235079
0.255788
0.274887
0.291839
0.306052
0.3169
0.323748
0.325966
0.322993
0.314565
0.300534
0.278247
0.245785
-0.0309688
-0.0104566
0.0107164
0.0325808
0.0551521
0.0784252
0.102368
0.126916
0.151962
0.17735
0.202869
0.228237
0.253099
0.27702
0.299474
0.319853
0.337468
0.351569
0.361368
0.366066
0.364919
0.357511
0.34356
0.320065
0.284911
-0.03582
-0.014196
0.008158
0.0313
0.0552735
0.080103
0.105786
0.132286
0.159525
0.187372
0.215633
0.244039
0.272232
0.299756
0.326044
0.350415
0.372076
0.390131
0.403612
0.411502
0.41282
0.406933
0.39336
0.368651
0.330449
-0.040262
-0.0175851
0.0058916
0.0302569
0.055587
0.0819405
0.109351
0.137818
0.167302
0.197706
0.228867
0.260542
0.292384
0.323929
0.354581
0.38359
0.410053
0.432916
0.450993
0.462996
0.46763
0.463956
0.451198
0.425309
0.383616
-0.0441468
-0.0205023
0.00401149
0.0295176
0.0561288
0.0839429
0.113035
0.143452
0.175198
0.208227
0.242422
0.27758
0.313387
0.349393
0.384986
0.419365
0.45152
0.480226
0.504046
0.521357
0.53045
0.529961
0.518671
0.491713
0.445969
-0.0473331
-0.0228355
0.00259954
0.0291324
0.0569157
0.0860913
0.116783
0.149091
0.183077
0.218758
0.256082
0.294908
0.33498
0.37589
0.417042
0.457608
0.496491
0.532292
0.563296
0.587472
0.602579
0.606658
0.597827
0.570049
0.519548
-0.049697
-0.0244932
0.0017145
0.0291253
0.0579348
0.0883327
0.120497
0.154589
0.190742
0.229047
0.269541
0.312171
0.356771
0.403015
0.450365
0.498013
0.544811
0.589208
0.629199
0.662278
0.685527
0.696165
0.691323
0.663244
0.607102
-0.0511448
-0.025416
0.00138048
0.0294834
0.0591325
0.0905683
0.124028
0.159741
0.197922
0.238756
0.282386
0.328882
0.378206
0.430165
0.484342
0.540016
0.596058
0.650827
0.702046
0.746689
0.781006
0.801106
0.802658
0.775305
0.712458
-0.0516261
-0.0255889
0.00157559
0.0301453
0.0604042
0.0926445
0.127165
0.16427
0.204264
0.247442
0.294077
0.344392
0.398528
0.456485
0.518051
0.582692
0.649416
0.716601
0.781793
0.841452
0.890865
0.924695
0.936479
0.911864
0.84116
-0.0511457
-0.0250528
0.00222203
0.030993
0.0615864
0.094345
0.12963
0.167822
0.209324
0.254552
0.30393
0.35787
0.41674
0.480811
0.550176
0.624629
0.703488
0.785355
0.86779
0.94688
1.01691
1.07077
1.09898
1.08104
1.00163
-0.0497727
-0.0239111
0.00318012
0.0318472
0.062454
0.0953897
0.131075
0.169966
0.212565
0.259418
0.311117
0.36829
0.431585
0.501621
0.578922
0.663785
0.756084
0.854962
0.958373
1.06239
1.1605
1.24365
1.29838
1.29478
1.20733
-0.0476451
-0.0223333
0.00424753
0.0324682
0.0627229
0.0954401
0.131092
0.170205
0.213375
0.261277
0.314678
0.374443
0.441538
0.517009
0.601936
0.697329
0.803938
0.92191
1.05022
1.18567
1.32167
1.44757
1.54518
1.57106
1.48126
-0.0449677
-0.0205507
0.0051639
0.032562
0.062058
0.0941081
0.129224
0.16799
0.211081
0.259289
0.313547
0.374958
0.444825
0.52467
0.616244
0.72148
0.842371
0.980676
1.13732
1.31118
1.49721
1.68479
1.85159
1.93689
1.86473
-0.0420008
-0.0188419
0.00562992
0.0318039
0.0601017
0.0909922
0.125009
0.162773
0.205017
0.25262
0.306653
0.368426
0.43956
0.522059
0.618396
0.731588
0.86522
1.02335
1.21008
1.42842
1.67808
1.95244
2.22911
2.43096
2.43197
-0.0390448
-0.0174972
0.00536333
0.0299166
0.0565762
0.0858064
0.118141
0.15421
0.194768
0.240742
0.293285
0.353852
0.424309
0.507068
0.605278
0.723068
0.865838
1.04055
1.25589
1.5219
1.84829
2.23989
2.68381
3.10346
3.3149
-0.036418
-0.0168147
0.00408489
0.0266373
0.051232
0.0783087
0.108377
0.142042
0.180039
0.223284
0.272933
0.330482
0.397899
0.477821
0.573849
0.690989
0.836295
1.01979
1.25576
1.5645
1.97298
2.50883
3.19022
4.01488
4.80852
-0.0343798
-0.0172599
0.0011173
0.0210663
0.0429308
0.0670989
0.0940211
0.124234
0.158392
0.197312
0.242036
0.293925
0.354792
0.427121
0.514398
0.621669
0.756458
0.930305
1.16159
1.48085
1.93699
2.59653
3.57225
5.19453
7.67851
-0.0330317
-0.0190922
-0.00395818
0.0126215
0.0309201
0.0512444
0.073948
0.0994489
0.128253
0.160985
0.198436
0.241629
0.291917
0.351143
0.42189
0.507936
0.615059
0.752632
0.937185
1.20067
1.60457
2.26074
3.47196
6.35814
12.4034
)
;

boundaryField
{
    movingWall
    {
        type            zeroGradient;
    }
    fixedWalls
    {
        type            zeroGradient;
    }
    frontAndBack
    {
        type            empty;
    }
    procBoundary1to0
    {
        type            processor;
        value           nonuniform List<scalar> 
50
(
0.0307557
0.0310962
0.0313355
0.0314947
0.0315974
0.031637
0.0316049
0.0314926
0.0312903
0.0309862
0.0305667
0.0300166
0.0293189
0.0284545
0.0274026
0.0261406
0.0246445
0.0228891
0.0208482
0.0184958
0.0158063
0.0127559
0.00932397
0.00549417
0.0012568
-0.00338942
-0.0084352
-0.0138582
-0.0196204
-0.025666
-0.0319199
-0.038286
-0.0446469
-0.0508651
-0.0567855
-0.0622405
-0.0670561
-0.0710619
-0.0741019
-0.0760481
-0.0768139
-0.0763674
-0.0747429
-0.0720474
-0.0684588
-0.06422
-0.0596416
-0.0550638
-0.0505407
-0.0460162
)
;
    }
}


// ************************************************************************* //
