/*--------------------------------*- C++ -*----------------------------------*\
| =========                 |                                                 |
| \\      /  F ield         | OpenFOAM: The Open Source CFD Toolbox           |
|  \\    /   O peration     | Version:  v2012                                 |
|   \\  /    A nd           | Website:  www.openfoam.com                      |
|    \\/     M anipulation  |                                                 |
\*---------------------------------------------------------------------------*/
FoamFile
{
    version     2.0;
    format      ascii;
    class       surfaceScalarField;
    location    "0.35";
    object      phi;
}
// * * * * * * * * * * * * * * * * * * * * * * * * * * * * * * * * * * * * * //

dimensions      [0 3 -1 0 0 0 0];
oriented        oriented;


internalField   nonuniform List<scalar> 
2425
(
1.17858e-09
-1.18744e-09
2.41866e-09
-1.24008e-09
2.51867e-09
-1.00013e-10
1.04036e-09
1.47831e-09
-2.09672e-09
3.13707e-09
-6.80455e-09
4.70784e-09
-1.29128e-08
6.10826e-09
-2.02137e-08
7.30089e-09
-2.84852e-08
8.27153e-09
-3.75034e-08
9.01815e-09
-4.70488e-08
9.54546e-09
-5.69108e-08
9.86202e-09
-6.68895e-08
9.97871e-09
-7.67973e-08
9.90779e-09
-8.64596e-08
9.66234e-09
-9.57156e-08
9.25593e-09
-1.04418e-07
8.70239e-09
-1.12434e-07
8.01568e-09
-1.19644e-07
7.2099e-09
-1.25943e-07
6.29923e-09
-1.31241e-07
5.29798e-09
-1.35461e-07
4.22066e-09
-1.38543e-07
3.08203e-09
-1.40441e-07
1.89714e-09
6.81478e-10
1.25007e-09
-2.43752e-09
1.44893e-09
-1.43894e-09
-1.16045e-09
2.50936e-09
-7.38571e-09
7.70358e-09
-1.74772e-08
1.32286e-08
-3.13268e-08
1.85574e-08
-4.86088e-08
2.33903e-08
-6.88734e-08
2.75655e-08
-9.16045e-08
3.10026e-08
-1.16256e-07
3.367e-08
-1.42277e-07
3.55658e-08
-1.69122e-07
3.67076e-08
-1.96269e-07
3.71252e-08
-2.23217e-07
3.68562e-08
-2.49499e-07
3.59439e-08
-2.74678e-07
3.44349e-08
-2.98353e-07
3.23781e-08
-3.20162e-07
2.9824e-08
-3.39776e-07
2.68245e-08
-3.56909e-07
2.34323e-08
-3.71312e-07
1.9701e-08
-3.82777e-07
1.56852e-08
-3.91136e-07
1.14409e-08
-3.96263e-07
7.02489e-09
2.49588e-09
1.54518e-10
-2.59204e-09
-2.40565e-09
1.12122e-09
-9.35509e-09
9.4588e-09
-2.15317e-08
1.98802e-08
-3.92016e-08
3.08986e-08
-6.22186e-08
4.15743e-08
-9.01528e-08
5.13246e-08
-1.22392e-07
5.98051e-08
-1.58215e-07
6.68253e-08
-1.96839e-07
7.22938e-08
-2.37458e-07
7.61852e-08
-2.79269e-07
7.85182e-08
-3.21485e-07
7.93415e-08
-3.63353e-07
7.87242e-08
-4.04159e-07
7.67498e-08
-4.43236e-07
7.35115e-08
-4.79967e-07
6.91095e-08
-5.13792e-07
6.36486e-08
-5.44205e-07
5.72379e-08
-5.70762e-07
4.99889e-08
-5.93077e-07
4.20162e-08
-6.10828e-07
3.34368e-08
-6.23758e-07
2.43705e-08
-6.31673e-07
1.49399e-08
5.27087e-09
-1.37809e-09
-1.21396e-09
-7.52762e-09
7.27075e-09
-1.97171e-08
2.16483e-08
-3.85878e-08
3.87509e-08
-6.42853e-08
5.6596e-08
-9.65611e-08
7.38501e-08
-1.34873e-07
8.96361e-08
-1.78471e-07
1.03403e-07
-2.2647e-07
1.14825e-07
-2.77905e-07
1.23729e-07
-3.31771e-07
1.30051e-07
-3.87055e-07
1.33802e-07
-4.42761e-07
1.35048e-07
-4.97927e-07
1.3389e-07
-5.51636e-07
1.30459e-07
-6.03027e-07
1.24903e-07
-6.51304e-07
1.17386e-07
-6.95738e-07
1.08082e-07
-7.35672e-07
9.71723e-08
-7.70528e-07
8.48444e-08
-7.99804e-07
7.1292e-08
-8.2308e-07
5.67133e-08
-8.40022e-07
4.1312e-08
-8.50379e-07
2.52967e-08
8.88104e-09
-3.02143e-09
1.80747e-09
-1.31155e-08
1.73648e-08
-3.09941e-08
3.95268e-08
-5.69664e-08
6.47232e-08
-9.09558e-08
9.05854e-08
-1.32549e-07
1.15443e-07
-1.81062e-07
1.38149e-07
-2.35605e-07
1.57946e-07
-2.95147e-07
1.74367e-07
-3.58566e-07
1.87148e-07
-4.24692e-07
1.96177e-07
-4.92342e-07
2.01452e-07
-5.60346e-07
2.03052e-07
-6.2757e-07
2.01114e-07
-6.92929e-07
1.95818e-07
-7.55401e-07
1.87375e-07
-8.14038e-07
1.76023e-07
-8.6797e-07
1.62014e-07
-9.16414e-07
1.45616e-07
-9.58677e-07
1.27107e-07
-9.94159e-07
1.06774e-07
-1.02236e-06
8.4913e-08
-1.04287e-06
6.18278e-08
-1.05541e-06
3.78303e-08
1.32401e-08
-4.64189e-09
6.44936e-09
-1.87578e-08
3.14807e-08
-4.24802e-08
6.32492e-08
-7.57186e-08
9.79616e-08
-1.18109e-07
1.32976e-07
-1.69022e-07
1.66357e-07
-2.27599e-07
1.96725e-07
-2.92795e-07
2.23143e-07
-3.63434e-07
2.45005e-07
-4.38248e-07
2.61961e-07
-5.1592e-07
2.7385e-07
-5.95122e-07
2.80654e-07
-6.74537e-07
2.82467e-07
-7.52884e-07
2.79461e-07
-8.28939e-07
2.71872e-07
-9.01545e-07
2.59981e-07
-9.69626e-07
2.44104e-07
-1.03219e-06
2.24583e-07
-1.08836e-06
2.01783e-07
-1.13734e-06
1.76082e-07
-1.17844e-06
1.47876e-07
-1.21109e-06
1.1757e-07
-1.23485e-06
8.55839e-08
-1.24937e-06
5.23458e-08
1.82964e-08
-6.18764e-09
1.2637e-08
-2.42598e-08
4.95529e-08
-5.38053e-08
9.27947e-08
-9.4315e-08
1.38471e-07
-1.45102e-07
1.83763e-07
-2.05286e-07
2.2654e-07
-2.73801e-07
2.65241e-07
-3.49433e-07
2.98774e-07
-4.30848e-07
3.2642e-07
-5.16635e-07
3.47748e-07
-6.05341e-07
3.62556e-07
-6.95503e-07
3.70816e-07
-7.85674e-07
3.72639e-07
-8.7445e-07
3.68237e-07
-9.60485e-07
3.57907e-07
-1.04251e-06
3.42004e-07
-1.11933e-06
3.20931e-07
-1.18988e-06
2.9513e-07
-1.25317e-06
2.65068e-07
-1.30832e-06
2.31238e-07
-1.3546e-06
1.94151e-07
-1.39136e-06
1.54335e-07
-1.41811e-06
1.12334e-07
-1.43447e-06
6.87077e-08
2.40284e-08
-7.64664e-09
2.02836e-08
-2.95489e-08
7.14551e-08
-6.4807e-08
1.28053e-07
-1.12502e-07
1.86166e-07
-1.7161e-07
2.42871e-07
-2.40976e-07
2.95906e-07
-3.19309e-07
3.43574e-07
-4.05203e-07
3.84668e-07
-4.97158e-07
4.18375e-07
-5.93615e-07
4.44205e-07
-6.92985e-07
4.61926e-07
-7.93678e-07
4.7151e-07
-8.9413e-07
4.7309e-07
-9.92823e-07
4.6693e-07
-1.08831e-06
4.5339e-07
-1.17921e-06
4.32908e-07
-1.26426e-06
4.05982e-07
-1.34229e-06
3.73159e-07
-1.41224e-06
3.35019e-07
-1.47318e-06
2.92176e-07
-1.52429e-06
2.45266e-07
-1.56491e-06
1.9495e-07
-1.59448e-06
1.41905e-07
-1.6126e-06
8.68306e-08
3.04413e-08
-9.02472e-09
2.93083e-08
-3.46163e-08
9.70467e-08
-7.54421e-08
1.68879e-07
-1.30194e-07
2.40918e-07
-1.97511e-07
3.10189e-07
-2.75953e-07
3.74348e-07
-3.63987e-07
4.31609e-07
-4.60001e-07
4.80681e-07
-5.62318e-07
5.20692e-07
-6.69224e-07
5.51111e-07
-7.78992e-07
5.71694e-07
-8.89907e-07
5.82425e-07
-1.00029e-06
5.83476e-07
-1.10853e-06
5.75166e-07
-1.21307e-06
5.5793e-07
-1.31246e-06
5.32297e-07
-1.40534e-06
4.98868e-07
-1.49049e-06
4.58301e-07
-1.56676e-06
4.11299e-07
-1.63319e-06
3.58602e-07
-1.68891e-06
3.00981e-07
-1.73319e-06
2.39234e-07
-1.76547e-06
1.74182e-07
-1.78531e-06
1.0667e-07
3.75633e-08
-1.03348e-08
3.96431e-08
-3.94849e-08
1.26197e-07
-8.57325e-08
2.15126e-07
-1.47404e-07
3.02589e-07
-2.2281e-07
3.85595e-07
-3.10218e-07
4.61756e-07
-4.07846e-07
5.29236e-07
-5.13863e-07
5.86698e-07
-6.26406e-07
6.33235e-07
-7.43598e-07
6.68303e-07
-8.6357e-07
6.91666e-07
-9.84485e-07
7.0334e-07
-1.10455e-06
7.03545e-07
-1.22206e-06
6.9267e-07
-1.33537e-06
6.71238e-07
-1.44295e-06
6.39877e-07
-1.54338e-06
5.99298e-07
-1.63536e-06
5.50281e-07
-1.71772e-06
4.93657e-07
-1.78942e-06
4.30301e-07
-1.84956e-06
3.61123e-07
-1.89739e-06
2.87065e-07
-1.9323e-06
2.09098e-07
-1.95385e-06
1.28216e-07
4.5443e-08
-1.1592e-08
5.12351e-08
-4.41919e-08
1.58797e-07
-9.57339e-08
2.66668e-07
-1.64201e-07
3.71056e-07
-2.47583e-07
4.68977e-07
-3.43859e-07
5.58032e-07
-4.50988e-07
6.36365e-07
-5.66914e-07
7.02624e-07
-6.89578e-07
7.55899e-07
-8.16935e-07
7.9566e-07
-9.46969e-07
8.217e-07
-1.07772e-06
8.34086e-07
-1.20728e-06
8.33108e-07
-1.33385e-06
8.19238e-07
-1.45571e-06
7.93098e-07
-1.57126e-06
7.55426e-07
-1.67901e-06
7.07055e-07
-1.77763e-06
6.48894e-07
-1.86588e-06
5.81909e-07
-1.94269e-06
5.07116e-07
-2.00714e-06
4.25571e-07
-2.05844e-06
3.38364e-07
-2.09596e-06
2.46618e-07
-2.11923e-06
1.51485e-07
5.41463e-08
-1.28115e-08
6.40465e-08
-4.87797e-08
1.94765e-07
-1.05517e-07
3.23405e-07
-1.80681e-07
4.4622e-07
-2.7195e-07
5.60246e-07
-3.77013e-07
6.63095e-07
-4.93568e-07
7.52921e-07
-6.19329e-07
8.28385e-07
-7.52034e-07
8.88604e-07
-8.89462e-07
9.33087e-07
-1.02945e-06
9.61686e-07
-1.1699e-06
9.74537e-07
-1.30881e-06
9.72019e-07
-1.44428e-06
9.54707e-07
-1.57451e-06
9.23335e-07
-1.69785e-06
8.78766e-07
-1.81276e-06
8.21964e-07
-1.91784e-06
7.53975e-07
-2.01184e-06
6.75909e-07
-2.09365e-06
5.88927e-07
-2.16232e-06
4.94236e-07
-2.21704e-06
3.9308e-07
-2.25715e-06
2.86735e-07
-2.28218e-06
1.76512e-07
6.37537e-08
-1.40073e-08
7.80538e-08
-5.32907e-08
2.34048e-07
-1.15158e-07
3.85272e-07
-1.96951e-07
5.28013e-07
-2.96044e-07
6.59339e-07
-4.09838e-07
7.76889e-07
-5.35766e-07
8.78849e-07
-6.71306e-07
9.63925e-07
-8.13987e-07
1.03129e-06
-9.6141e-07
1.08051e-06
-1.11125e-06
1.11153e-06
-1.2613e-06
1.12458e-06
-1.40943e-06
1.12015e-06
-1.55366e-06
1.09893e-06
-1.69212e-06
1.0618e-06
-1.82309e-06
1.00974e-06
-1.945e-06
9.4387e-07
-2.0564e-06
8.65379e-07
-2.15602e-06
7.75529e-07
-2.24273e-06
6.75632e-07
-2.31554e-06
5.6705e-07
-2.37364e-06
4.51179e-07
-2.41636e-06
3.29455e-07
-2.4432e-06
2.03347e-07
7.43575e-08
-1.51924e-08
9.32462e-08
-5.77655e-08
2.76621e-07
-1.2473e-07
4.52237e-07
-2.1312e-07
6.16404e-07
-3.20006e-07
7.66225e-07
-4.42499e-07
8.99381e-07
-5.77766e-07
1.01412e-06
-7.23044e-07
1.1092e-06
-8.75649e-07
1.18389e-06
-1.033e-06
1.23786e-06
-1.19261e-06
1.27114e-06
-1.35214e-06
1.28411e-06
-1.50936e-06
1.27738e-06
-1.66221e-06
1.25178e-06
-1.80874e-06
1.20833e-06
-1.94719e-06
1.14819e-06
-2.07594e-06
1.07262e-06
-2.19353e-06
9.82963e-07
-2.29864e-06
8.80643e-07
-2.39014e-06
7.67131e-07
-2.46703e-06
6.43942e-07
-2.52848e-06
5.12631e-07
-2.57382e-06
3.7479e-07
-2.60252e-06
2.32045e-07
8.60586e-08
-1.63782e-08
1.09624e-07
-6.22414e-08
3.22485e-07
-1.34303e-07
5.24298e-07
-2.29291e-07
7.11391e-07
-3.43968e-07
8.80902e-07
-4.75154e-07
1.03057e-06
-6.19746e-07
1.15871e-06
-7.74731e-07
1.26419e-06
-9.37211e-07
1.34637e-06
-1.10441e-06
1.40506e-06
-1.2737e-06
1.44043e-06
-1.44259e-06
1.453e-06
-1.60877e-06
1.44355e-06
-1.77007e-06
1.41308e-06
-1.9245e-06
1.36277e-06
-2.07025e-06
1.29394e-06
-2.20566e-06
1.20803e-06
-2.32926e-06
1.10656e-06
-2.43972e-06
9.91106e-07
-2.5359e-06
8.63305e-07
-2.61679e-06
7.24832e-07
-2.68155e-06
5.77397e-07
-2.72951e-06
4.22747e-07
-2.76013e-06
2.62663e-07
9.89631e-08
-1.75749e-08
1.27199e-07
-6.67525e-08
3.71662e-07
-1.43943e-07
6.01489e-07
-2.45561e-07
8.13009e-07
-3.68057e-07
1.0034e-06
-5.07953e-07
1.17046e-06
-6.61867e-07
1.31262e-06
-8.26536e-07
1.42886e-06
-9.98837e-07
1.51867e-06
-1.17581e-06
1.58203e-06
-1.35465e-06
1.61928e-06
-1.53276e-06
1.63111e-06
-1.70771e-06
1.6185e-06
-1.87726e-06
1.58263e-06
-2.03938e-06
1.52488e-06
-2.1922e-06
1.44676e-06
-2.33406e-06
1.34989e-06
-2.46347e-06
1.23596e-06
-2.5791e-06
1.10674e-06
-2.6798e-06
9.64006e-07
-2.76458e-06
8.0961e-07
-2.83259e-06
6.45414e-07
-2.88316e-06
4.73317e-07
-2.91575e-06
2.95249e-07
1.13178e-07
-1.87918e-08
1.45991e-07
-7.13297e-08
4.242e-07
-1.53709e-07
6.83869e-07
-2.62018e-07
9.21318e-07
-3.92388e-07
1.13377e-06
-5.4103e-07
1.31911e-06
-7.04275e-07
1.47587e-06
-8.78601e-07
1.60318e-06
-1.06066e-06
1.70073e-06
-1.24729e-06
1.76866e-06
-1.43554e-06
1.80753e-06
-1.62267e-06
1.81824e-06
-1.80617e-06
1.80199e-06
-1.98372e-06
1.76018e-06
-2.15324e-06
1.69441e-06
-2.31286e-06
1.60638e-06
-2.46089e-06
1.49792e-06
-2.59583e-06
1.37091e-06
-2.71639e-06
1.22729e-06
-2.82142e-06
1.06903e-06
-2.90993e-06
8.98123e-07
-2.9811e-06
7.16587e-07
-3.03425e-06
5.26467e-07
-3.06884e-06
3.29838e-07
1.28808e-07
-2.00372e-08
1.66028e-07
-7.60019e-08
4.80165e-07
-1.63656e-07
7.71523e-07
-2.78747e-07
1.03641e-06
-4.17066e-07
1.27209e-06
-5.74504e-07
1.47654e-06
-7.47092e-07
1.64845e-06
-9.3104e-07
1.78713e-06
-1.12276e-06
1.89245e-06
-1.31891e-06
1.9648e-06
-1.51637e-06
2.00498e-06
-1.71227e-06
2.01415e-06
-1.90401e-06
1.99374e-06
-2.08923e-06
1.9454e-06
-2.26581e-06
1.87098e-06
-2.43185e-06
1.77242e-06
-2.58568e-06
1.65175e-06
-2.72583e-06
1.51106e-06
-2.851e-06
1.35246e-06
-2.96008e-06
1.17811e-06
-3.05212e-06
9.90159e-07
-3.1263e-06
7.9077e-07
-3.18196e-06
5.82128e-07
-3.21856e-06
3.6644e-07
1.45946e-07
-2.13191e-08
1.87347e-07
-8.07963e-08
5.39642e-07
-1.73837e-07
8.64564e-07
-2.95823e-07
1.15839e-06
-4.42189e-07
1.41845e-06
-6.08483e-07
1.64284e-06
-7.90424e-07
1.8304e-06
-9.83941e-07
1.98065e-06
-1.18521e-06
2.09372e-06
-1.39067e-06
2.17027e-06
-1.59707e-06
2.21138e-06
-1.80141e-06
2.21849e-06
-2.00102e-06
2.19334e-06
-2.19348e-06
2.13786e-06
-2.37665e-06
2.05415e-06
-2.54864e-06
1.94442e-06
-2.70781e-06
1.81092e-06
-2.85271e-06
1.65595e-06
-2.98208e-06
1.48184e-06
-3.09487e-06
1.2909e-06
-3.19014e-06
1.08543e-06
-3.26712e-06
8.67755e-07
-3.32517e-06
6.40179e-07
-3.36377e-06
4.05033e-07
1.64672e-07
-2.26455e-08
2.09993e-07
-8.57399e-08
6.02736e-07
-1.84303e-07
9.63127e-07
-3.13323e-07
1.28741e-06
-4.67848e-07
1.57298e-06
-6.43065e-07
1.81806e-06
-8.34358e-07
2.02169e-06
-1.03736e-06
2.18365e-06
-1.248e-06
2.30436e-06
-1.46253e-06
2.3848e-06
-1.67751e-06
2.42636e-06
-1.88987e-06
2.43085e-06
-2.09684e-06
2.40031e-06
-2.29598e-06
2.33701e-06
-2.48516e-06
2.24333e-06
-2.66251e-06
2.12177e-06
-2.82642e-06
1.97482e-06
-2.97549e-06
1.80503e-06
-3.10855e-06
1.6149e-06
-3.22457e-06
1.40692e-06
-3.3227e-06
1.18356e-06
-3.4022e-06
9.47255e-07
-3.46246e-06
7.00441e-07
-3.50298e-06
4.45552e-07
1.8504e-07
-2.40247e-08
2.34018e-07
-9.0861e-08
6.69573e-07
-1.95107e-07
1.06737e-06
-3.31321e-07
1.42363e-06
-4.94136e-07
1.73579e-06
-6.78342e-07
2.00226e-06
-8.78967e-07
2.22231e-06
-1.09134e-06
2.39602e-06
-1.31112e-06
2.52415e-06
-1.53436e-06
2.60804e-06
-1.75749e-06
2.64948e-06
-1.9773e-06
2.65066e-06
-2.191e-06
2.61401e-06
-2.39613e-06
2.54214e-06
-2.59058e-06
2.43778e-06
-2.77253e-06
2.30371e-06
-2.94043e-06
2.14272e-06
-3.09296e-06
1.95756e-06
-3.22903e-06
1.75097e-06
-3.3477e-06
1.52559e-06
-3.44819e-06
1.28404e-06
-3.52982e-06
1.02889e-06
-3.59204e-06
7.62657e-07
-3.63436e-06
4.87875e-07
2.07073e-07
-2.54658e-08
2.59483e-07
-9.61905e-08
7.40297e-07
-2.06307e-07
1.17749e-06
-3.49901e-07
1.56722e-06
-5.21146e-07
1.90704e-06
-7.14403e-07
2.19552e-06
-9.24316e-07
2.43223e-06
-1.14588e-06
2.61759e-06
-1.3745e-06
2.75277e-06
-1.60601e-06
2.83954e-06
-1.83669e-06
2.88016e-06
-2.06326e-06
2.87724e-06
-2.2829e-06
2.83365e-06
-2.49315e-06
2.75239e-06
-2.69195e-06
2.63658e-06
-2.87755e-06
2.48932e-06
-3.04851e-06
2.31368e-06
-3.20362e-06
2.11267e-06
-3.34187e-06
1.88922e-06
-3.46246e-06
1.64617e-06
-3.56467e-06
1.38626e-06
-3.64794e-06
1.11215e-06
-3.71176e-06
8.26478e-07
-3.7557e-06
5.31814e-07
2.30751e-07
-2.69796e-08
2.86463e-07
-1.01764e-07
8.15082e-07
-2.1797e-07
1.29369e-06
-3.69155e-07
1.71841e-06
-5.48983e-07
2.08686e-06
-7.51344e-07
2.39788e-06
-9.70465e-07
2.65135e-06
-1.20099e-06
2.84811e-06
-1.43804e-06
2.98982e-06
-1.67723e-06
3.07874e-06
-1.91474e-06
3.11766e-06
-2.1472e-06
3.10971e-06
-2.37178e-06
3.05822e-06
-2.58607e-06
2.96669e-06
-2.78809e-06
2.8386e-06
-2.9762e-06
2.67742e-06
-3.14908e-06
2.48655e-06
-3.30566e-06
2.26925e-06
-3.44509e-06
2.02865e-06
-3.56667e-06
1.76775e-06
-3.66984e-06
1.48943e-06
-3.75412e-06
1.19643e-06
-3.81908e-06
8.91447e-07
-3.86437e-06
5.771e-07
2.56001e-07
-2.85789e-08
3.15042e-07
-1.07626e-07
8.94129e-07
-2.30174e-07
1.41624e-06
-3.89192e-07
1.87743e-06
-5.7777e-07
2.27544e-06
-7.89275e-07
2.60938e-06
-1.01747e-06
2.87955e-06
-1.25663e-06
3.08727e-06
-1.50158e-06
3.23476e-06
-1.74774e-06
3.3249e-06
-1.99115e-06
3.36107e-06
-2.22842e-06
3.34698e-06
-2.45673e-06
3.28653e-06
-2.67374e-06
3.1837e-06
-2.8776e-06
3.04246e-06
-3.06682e-06
2.86664e-06
-3.24025e-06
2.65998e-06
-3.39698e-06
2.42599e-06
-3.53635e-06
2.16802e-06
-3.65782e-06
1.88923e-06
-3.76099e-06
1.59259e-06
-3.8455e-06
1.28094e-06
-3.91104e-06
9.56986e-07
-3.95731e-06
6.23367e-07
2.82686e-07
-3.02802e-08
3.45322e-07
-1.13829e-07
9.77678e-07
-2.43019e-07
1.54543e-06
-4.10145e-07
2.04455e-06
-6.07653e-07
2.47295e-06
-8.28321e-07
2.83005e-06
-1.06541e-06
3.11664e-06
-1.31278e-06
3.33464e-06
-1.56496e-06
3.48694e-06
-1.81717e-06
3.57711e-06
-2.06534e-06
3.60924e-06
-2.30609e-06
3.58772e-06
-2.53663e-06
3.51708e-06
-2.75478e-06
3.40185e-06
-2.95882e-06
3.2465e-06
-3.14748e-06
3.0553e-06
-3.31979e-06
2.83229e-06
-3.47511e-06
2.5813e-06
-3.61295e-06
2.30586e-06
-3.73299e-06
2.00927e-06
-3.83501e-06
1.69461e-06
-3.9188e-06
1.36474e-06
-3.98419e-06
1.02238e-06
-4.03097e-06
6.70142e-07
3.1059e-07
-3.2104e-08
3.77426e-07
-1.20441e-07
1.06601e-06
-2.56626e-07
1.68162e-06
-4.32182e-07
2.22011e-06
-6.38814e-07
2.67958e-06
-8.68639e-07
3.05988e-06
-1.11436e-06
3.36236e-06
-1.36938e-06
3.58967e-06
-1.62794e-06
3.74549e-06
-1.88505e-06
3.83423e-06
-2.13659e-06
3.86078e-06
-2.37919e-06
3.83031e-06
-2.61018e-06
3.74807e-06
-2.82754e-06
3.61921e-06
-3.02979e-06
3.44875e-06
-3.21588e-06
3.24139e-06
-3.38514e-06
3.00156e-06
-3.53717e-06
2.73333e-06
-3.67175e-06
2.44044e-06
-3.78881e-06
2.12633e-06
-3.88831e-06
1.79411e-06
-3.97027e-06
1.44669e-06
-4.03463e-06
1.08674e-06
-4.08132e-06
7.16826e-07
3.39406e-07
-3.40769e-08
4.11503e-07
-1.27549e-07
1.15949e-06
-2.71153e-07
1.82522e-06
-4.55512e-07
2.40447e-06
-6.71481e-07
2.89555e-06
-9.10418e-07
3.29881e-06
-1.1644e-06
3.61634e-06
-1.42637e-06
3.85164e-06
-1.69023e-06
4.00935e-06
-1.95084e-06
4.09484e-06
-2.20403e-06
4.11397e-06
-2.4465e-06
4.07279e-06
-2.67578e-06
3.97735e-06
-2.89008e-06
3.83351e-06
-3.08819e-06
3.64686e-06
-3.26939e-06
3.42259e-06
-3.43331e-06
3.16548e-06
-3.57988e-06
2.8799e-06
-3.70919e-06
2.56975e-06
-3.82143e-06
2.23857e-06
-3.91684e-06
1.88952e-06
-3.99563e-06
1.52547e-06
-4.05793e-06
1.14905e-06
-4.1038e-06
7.62688e-07
3.68729e-07
-3.62335e-08
4.47737e-07
-1.35265e-07
1.25852e-06
-2.86798e-07
1.97676e-06
-4.804e-07
2.59807e-06
-7.05935e-07
3.12109e-06
-9.53894e-07
3.54677e-06
-1.21566e-06
3.8781e-06
-1.48366e-06
4.11964e-06
-1.75147e-06
4.27716e-06
-2.01383e-06
4.3572e-06
-2.26658e-06
4.36672e-06
-2.50657e-06
4.31278e-06
-2.73157e-06
4.20235e-06
-2.9401e-06
4.04204e-06
-3.13133e-06
3.83808e-06
-3.3049e-06
3.59616e-06
-3.46084e-06
3.32143e-06
-3.59945e-06
3.01851e-06
-3.72117e-06
2.69147e-06
-3.82652e-06
2.34391e-06
-3.91601e-06
1.97901e-06
-3.99009e-06
1.59956e-06
-4.04912e-06
1.20808e-06
-4.09329e-06
8.06854e-07
3.9804e-07
-3.86186e-08
4.86355e-07
-1.43733e-07
1.36363e-06
-3.03817e-07
2.13684e-06
-5.07183e-07
2.80143e-06
-7.42528e-07
3.35643e-06
-9.99348e-07
3.80359e-06
-1.26824e-06
4.14699e-06
-1.5411e-06
4.3925e-06
-1.81119e-06
4.54725e-06
-2.07315e-06
4.61917e-06
-2.32293e-06
4.61649e-06
-2.5576e-06
4.54746e-06
-2.77527e-06
4.42002e-06
-2.97487e-06
4.24165e-06
-3.15602e-06
4.01923e-06
-3.31882e-06
3.75896e-06
-3.46376e-06
3.46637e-06
-3.59156e-06
3.14631e-06
-3.70306e-06
2.80297e-06
-3.79915e-06
2.44e-06
-3.88066e-06
2.06051e-06
-3.94831e-06
1.66721e-06
-4.00267e-06
1.26245e-06
-4.04412e-06
8.483e-07
4.267e-07
-4.12909e-08
5.27646e-07
-1.53139e-07
1.47548e-06
-3.22534e-07
2.30623e-06
-5.36281e-07
3.01518e-06
-7.81694e-07
3.60184e-06
-1.04711e-06
4.06901e-06
-1.32227e-06
4.42215e-06
-1.59848e-06
4.66871e-06
-1.86875e-06
4.81752e-06
-2.12768e-06
4.87811e-06
-2.37142e-06
4.86022e-06
-2.59738e-06
4.77342e-06
-2.80413e-06
4.62677e-06
-2.99113e-06
4.42864e-06
-3.15852e-06
4.18662e-06
-3.30696e-06
3.90741e-06
-3.43748e-06
3.59689e-06
-3.55126e-06
3.26009e-06
-3.64962e-06
2.90133e-06
-3.73382e-06
2.5242e-06
-3.80504e-06
2.13174e-06
-3.86432e-06
1.72649e-06
-3.91246e-06
1.31059e-06
-3.95002e-06
8.85859e-07
4.53954e-07
-4.43275e-08
5.71974e-07
-1.63726e-07
1.59488e-06
-3.43367e-07
2.48588e-06
-5.68222e-07
3.24004e-06
-8.23956e-07
3.85758e-06
-1.09757e-06
4.34263e-06
-1.37782e-06
4.7024e-06
-1.65547e-06
4.94635e-06
-1.92328e-06
5.08533e-06
-2.17596e-06
5.13079e-06
-2.40996e-06
5.09422e-06
-2.6232e-06
4.98666e-06
-2.81483e-06
4.8184e-06
-2.98496e-06
4.59877e-06
-3.13439e-06
4.33605e-06
-3.26444e-06
4.03745e-06
-3.37669e-06
3.70914e-06
-3.47292e-06
3.35632e-06
-3.5549e-06
2.98331e-06
-3.62434e-06
2.59364e-06
-3.68279e-06
2.19019e-06
-3.73158e-06
1.77528e-06
-3.77178e-06
1.35079e-06
-3.80416e-06
9.18232e-07
4.78924e-07
-4.78299e-08
6.19804e-07
-1.75808e-07
1.72286e-06
-3.66847e-07
2.67692e-06
-6.03663e-07
3.47685e-06
-8.69939e-07
4.12385e-06
-1.15112e-06
4.62381e-06
-1.43491e-06
4.98619e-06
-1.71151e-06
5.22295e-06
-1.97357e-06
5.34739e-06
-2.21603e-06
5.37325e-06
-2.43585e-06
5.31403e-06
-2.63161e-06
5.18243e-06
-2.80324e-06
4.99003e-06
-2.95164e-06
4.74716e-06
-3.07838e-06
4.4628e-06
-3.18552e-06
4.14459e-06
-3.27532e-06
3.79894e-06
-3.35013e-06
3.43114e-06
-3.41226e-06
3.04544e-06
-3.46386e-06
2.64524e-06
-3.50686e-06
2.23319e-06
-3.54291e-06
1.81133e-06
-3.57334e-06
1.38121e-06
-3.59911e-06
9.44005e-07
5.00633e-07
-5.19331e-08
6.71737e-07
-1.89794e-07
1.86072e-06
-3.93649e-07
2.88077e-06
-6.43409e-07
3.72661e-06
-9.20363e-07
4.40081e-06
-1.20816e-06
4.9116e-06
-1.49338e-06
5.27141e-06
-1.76572e-06
5.49529e-06
-2.01788e-06
5.59955e-06
-2.24528e-06
5.60065e-06
-2.44558e-06
5.51434e-06
-2.61829e-06
5.35514e-06
-2.76429e-06
5.13603e-06
-2.88543e-06
4.86831e-06
-2.98421e-06
4.56158e-06
-3.0635e-06
4.22388e-06
-3.1263e-06
3.86174e-06
-3.17559e-06
3.48042e-06
-3.21421e-06
3.08406e-06
-3.24475e-06
2.67579e-06
-3.26953e-06
2.25797e-06
-3.29051e-06
1.8323e-06
-3.30925e-06
1.39995e-06
-3.32694e-06
9.61696e-07
5.18019e-07
-5.68178e-08
7.28555e-07
-2.06223e-07
2.01012e-06
-4.24634e-07
3.09918e-06
-6.88443e-07
3.99042e-06
-9.76032e-07
4.6884e-06
-1.269e-06
5.20457e-06
-1.55276e-06
5.55517e-06
-1.81666e-06
5.7592e-06
-2.05373e-06
5.83662e-06
-2.26011e-06
5.80703e-06
-2.43453e-06
5.68876e-06
-2.57768e-06
5.49828e-06
-2.69161e-06
5.24997e-06
-2.77934e-06
4.95603e-06
-2.84439e-06
4.62663e-06
-2.89052e-06
4.27001e-06
-2.92152e-06
3.89274e-06
-2.94101e-06
3.49992e-06
-2.95236e-06
3.0954e-06
-2.9586e-06
2.68203e-06
-2.96238e-06
2.26175e-06
-2.96594e-06
1.83587e-06
-2.97109e-06
1.40511e-06
-2.97919e-06
9.69799e-07
5.29978e-07
-6.27292e-08
7.91284e-07
-2.25803e-07
2.1732e-06
-4.60896e-07
3.33427e-06
-7.39936e-07
4.26946e-06
-1.03778e-06
4.98624e-06
-1.33372e-06
5.50051e-06
-1.61207e-06
5.83352e-06
-1.8621e-06
6.00923e-06
-2.0775e-06
6.05202e-06
-2.25562e-06
5.98515e-06
-2.39661e-06
5.82975e-06
-2.50265e-06
5.60433e-06
-2.57729e-06
5.3246e-06
-2.62482e-06
5.00357e-06
-2.64993e-06
4.65174e-06
-2.65734e-06
4.27742e-06
-2.65162e-06
3.88702e-06
-2.63702e-06
3.48531e-06
-2.6174e-06
3.07578e-06
-2.59617e-06
2.6608e-06
-2.57629e-06
2.24187e-06
-2.56021e-06
1.81979e-06
-2.54995e-06
1.39484e-06
-2.54702e-06
9.66866e-07
5.35412e-07
-7.00049e-08
8.61289e-07
-2.49479e-07
2.35267e-06
-5.03822e-07
3.58862e-06
-7.99254e-07
4.56489e-06
-1.10639e-06
5.29338e-06
-1.40199e-06
5.79611e-06
-1.66947e-06
6.10101e-06
-1.89849e-06
6.23824e-06
-2.08398e-06
6.2375e-06
-2.22501e-06
6.12618e-06
-2.32368e-06
5.92841e-06
-2.38404e-06
5.66469e-06
-2.41135e-06
5.35191e-06
-2.4114e-06
5.00362e-06
-2.3901e-06
4.63044e-06
-2.35315e-06
4.24047e-06
-2.30585e-06
3.83973e-06
-2.25305e-06
3.43251e-06
-2.199e-06
3.02173e-06
-2.14742e-06
2.60922e-06
-2.10148e-06
2.19593e-06
-2.06381e-06
1.78212e-06
-2.03652e-06
1.36756e-06
-2.02125e-06
9.51593e-07
5.33293e-07
-7.91195e-08
9.40408e-07
-2.7852e-07
2.55207e-06
-5.55163e-07
3.86526e-06
-8.67919e-07
4.87765e-06
-1.18234e-06
5.60779e-06
-1.47261e-06
6.08638e-06
-1.7217e-06
6.3501e-06
-1.92037e-06
6.43692e-06
-2.06561e-06
6.38274e-06
-2.15895e-06
6.21952e-06
-2.20496e-06
5.97443e-06
-2.21001e-06
5.66975e-06
-2.18133e-06
5.32322e-06
-2.1263e-06
4.94859e-06
-2.05208e-06
4.55622e-06
-1.9653e-06
4.15369e-06
-1.87194e-06
3.74636e-06
-1.77725e-06
3.33782e-06
-1.68581e-06
2.93029e-06
-1.60151e-06
2.52492e-06
-1.5276e-06
2.12202e-06
-1.46678e-06
1.7213e-06
-1.42121e-06
1.32199e-06
-1.39256e-06
9.2294e-07
5.22753e-07
-9.0756e-08
1.03116e-06
-3.14651e-07
2.77597e-06
-6.17099e-07
4.16771e-06
-9.47489e-07
5.20804e-06
-1.26548e-06
5.92578e-06
-1.54291e-06
6.36382e-06
-1.76322e-06
6.5704e-06
-1.91938e-06
6.59308e-06
-2.01152e-06
6.47488e-06
-2.04453e-06
6.25253e-06
-2.02612e-06
5.95602e-06
-1.96537e-06
5.60899e-06
-1.87164e-06
5.22949e-06
-1.75397e-06
4.83093e-06
-1.62069e-06
4.42293e-06
-1.4792e-06
4.0122e-06
-1.33596e-06
3.60312e-06
-1.19651e-06
3.19837e-06
-1.06552e-06
2.7993e-06
-9.46881e-07
2.40628e-06
-8.43814e-07
2.01895e-06
-7.58935e-07
1.63643e-06
-6.94339e-07
1.25739e-06
-6.51654e-07
8.80254e-07
5.03176e-07
-1.05927e-07
1.13709e-06
-3.60244e-07
3.03029e-06
-6.92286e-07
4.49975e-06
-1.03925e-06
5.55501e-06
-1.35427e-06
6.2408e-06
-1.60769e-06
6.61723e-06
-1.7849e-06
6.74762e-06
-1.88282e-06
6.69099e-06
-1.90612e-06
6.49818e-06
-1.86411e-06
6.21052e-06
-1.76829e-06
5.8602e-06
-1.63072e-06
5.47143e-06
-1.463e-06
5.06178e-06
-1.2757e-06
4.64362e-06
-1.07807e-06
4.22531e-06
-8.78066e-07
3.81219e-06
-6.82356e-07
3.40741e-06
-4.9647e-07
3.01249e-06
-3.24942e-07
2.62777e-06
-1.71466e-07
2.2528e-06
-3.90257e-08
1.88651e-06
6.99811e-08
1.52742e-06
1.53647e-07
1.17373e-06
2.10481e-07
8.23421e-07
4.74305e-07
-1.26181e-07
1.26327e-06
-4.18579e-07
3.32268e-06
-7.83787e-07
4.86496e-06
-1.14357e-06
5.91479e-06
-1.44452e-06
6.54175e-06
-1.65737e-06
6.83008e-06
-1.77204e-06
6.86229e-06
-1.79168e-06
6.71063e-06
-1.7273e-06
6.43381e-06
-1.59372e-06
6.07694e-06
-1.40676e-06
5.67324e-06
-1.18157e-06
5.24624e-06
-9.31803e-07
4.81201e-06
-6.69198e-07
4.38101e-06
-4.03589e-07
3.9597e-06
-1.43029e-07
3.55163e-06
1.05984e-07
3.1584e-06
3.38267e-07
2.7802e-06
5.49716e-07
2.41632e-06
7.37093e-07
2.06543e-06
8.97846e-07
1.72576e-06
1.02997e-06
1.3953e-06
1.13186e-06
1.07183e-06
1.20228e-06
7.53002e-07
4.36351e-07
-1.5397e-07
1.41724e-06
-4.94179e-07
3.66289e-06
-8.94695e-07
5.26547e-06
-1.25845e-06
6.27855e-06
-1.52701e-06
6.8103e-06
-1.67517e-06
6.97825e-06
-1.70128e-06
6.8884e-06
-1.61781e-06
6.62716e-06
-1.44405e-06
6.26005e-06
-1.20125e-06
5.83413e-06
-9.09726e-07
5.38172e-06
-5.87475e-07
4.92399e-06
-2.49631e-07
4.47416e-06
9.14965e-08
4.03989e-06
4.26148e-07
3.62505e-06
7.46729e-07
3.23105e-06
1.04741e-06
2.85772e-06
1.32378e-06
2.50384e-06
1.57248e-06
2.16762e-06
1.79101e-06
1.8469e-06
1.97746e-06
1.53931e-06
2.13038e-06
1.24238e-06
2.24861e-06
9.53597e-07
2.33124e-06
6.70372e-07
3.90093e-07
-1.93275e-07
1.61052e-06
-5.93111e-07
4.06273e-06
-1.02697e-06
5.69933e-06
-1.37666e-06
6.62824e-06
-1.58334e-06
7.01699e-06
-1.63243e-06
7.02734e-06
-1.53623e-06
6.7922e-06
-1.32014e-06
6.41107e-06
-1.0135e-06
5.9534e-06
-6.44332e-07
5.46497e-06
-2.36997e-07
4.97438e-06
1.88606e-07
4.49839e-06
6.16862e-07
4.04591e-06
1.03589e-06
3.62085e-06
1.43689e-06
3.22405e-06
1.81343e-06
2.85451e-06
2.16094e-06
2.5102e-06
2.47621e-06
2.18857e-06
2.75701e-06
1.88682e-06
3.0018e-06
1.6021e-06
3.20953e-06
1.33158e-06
3.37943e-06
1.07249e-06
3.51091e-06
8.22117e-07
3.60347e-06
5.77817e-07
3.36953e-07
-2.50656e-07
1.86117e-06
-7.22827e-07
4.5349e-06
-1.17829e-06
6.15478e-06
-1.47981e-06
6.92976e-06
-1.57866e-06
7.11584e-06
-1.4813e-06
6.92998e-06
-1.22111e-06
6.53202e-06
-8.39889e-07
6.02985e-06
-3.77704e-07
5.49121e-06
1.31465e-07
4.9558e-06
6.60841e-07
4.44501e-06
1.19035e-06
3.96888e-06
1.70553e-06
3.53073e-06
2.19628e-06
3.1301e-06
2.65581e-06
2.76452e-06
3.07971e-06
2.43061e-06
3.46526e-06
2.12466e-06
3.81087e-06
1.84296e-06
4.11574e-06
1.58195e-06
4.37952e-06
1.33832e-06
4.60213e-06
1.10896e-06
4.78361e-06
8.91008e-07
4.92398e-06
6.81741e-07
5.02322e-06
4.78582e-07
2.79027e-07
-3.36751e-07
2.19792e-06
-8.90165e-07
5.08832e-06
-1.33436e-06
6.59898e-06
-1.52675e-06
7.12215e-06
-1.44911e-06
7.0382e-06
-1.14378e-06
6.62464e-06
-6.72526e-07
6.06076e-06
-9.50973e-08
5.45242e-06
5.39325e-07
4.85679e-06
1.19379e-06
4.30133e-06
1.84222e-06
3.79658e-06
2.4671e-06
3.34399e-06
3.05729e-06
2.94054e-06
3.60611e-06
2.58128e-06
4.10994e-06
2.2607e-06
4.56714e-06
1.97341e-06
4.97735e-06
1.71445e-06
5.34097e-06
1.47933e-06
5.65879e-06
1.26413e-06
5.93177e-06
1.06534e-06
6.16086e-06
8.79875e-07
6.34691e-06
7.04957e-07
6.49059e-06
5.3806e-07
6.59234e-06
3.76837e-07
2.19055e-07
-4.67157e-07
2.66508e-06
-1.09302e-06
5.71418e-06
-1.45056e-06
6.95652e-06
-1.43127e-06
7.10286e-06
-1.0815e-06
6.68843e-06
-4.96351e-07
6.03949e-06
2.30356e-07
5.33405e-06
1.02429e-06
4.65849e-06
1.83306e-06
4.04802e-06
2.62263e-06
3.51176e-06
3.37243e-06
3.04678e-06
4.0711e-06
2.64532e-06
4.71327e-06
2.29837e-06
5.29725e-06
1.99729e-06
5.82357e-06
1.73439e-06
6.29392e-06
1.50307e-06
6.71058e-06
1.29778e-06
7.07601e-06
1.1139e-06
7.39262e-06
9.47518e-07
7.66261e-06
7.95348e-07
7.88791e-06
6.54578e-07
8.0701e-06
5.22764e-07
8.21043e-06
3.97739e-07
8.30973e-06
2.77534e-07
1.60307e-07
-6.56502e-07
3.32158e-06
-1.2924e-06
6.35008e-06
-1.41006e-06
7.07418e-06
-1.02128e-06
6.71407e-06
-2.82525e-07
5.94968e-06
6.48736e-07
5.10823e-06
1.65429e-06
4.3285e-06
2.65791e-06
3.65487e-06
3.61576e-06
3.09016e-06
4.50558e-06
2.62195e-06
5.31825e-06
2.23411e-06
6.05223e-06
1.91134e-06
6.70997e-06
1.64064e-06
7.29581e-06
1.41145e-06
7.8148e-06
1.21539e-06
8.27203e-06
1.04584e-06
8.67226e-06
8.9755e-07
9.0198e-06
7.66363e-07
9.3184e-06
6.48922e-07
9.57125e-06
5.42491e-07
9.78103e-06
4.44799e-07
9.94987e-06
3.53925e-07
1.00794e-05
2.682e-07
1.01708e-05
1.86137e-07
1.06365e-07
-8.8803e-07
4.20961e-06
-1.33348e-06
6.79554e-06
-9.35243e-07
6.67594e-06
2.92377e-08
5.74959e-06
1.26091e-06
4.718e-06
2.55959e-06
3.80956e-06
3.81286e-06
3.07523e-06
4.96782e-06
2.49991e-06
6.00608e-06
2.0519e-06
6.927e-06
1.70103e-06
7.73801e-06
1.4231e-06
8.44951e-06
1.19985e-06
9.0723e-06
1.01784e-06
9.6165e-06
8.67252e-07
1.00911e-05
7.40829e-07
1.05037e-05
6.33191e-07
1.0861e-05
5.40281e-07
1.11683e-05
4.58992e-07
1.14304e-05
3.86907e-07
1.16508e-05
3.22106e-07
1.18325e-05
2.63035e-07
1.1978e-05
2.08404e-07
1.20891e-05
1.57117e-07
1.2167e-05
1.08207e-07
6.07973e-08
-1.01533e-06
5.22494e-06
-7.47874e-07
6.52808e-06
5.83976e-07
5.34409e-06
2.29991e-06
4.03366e-06
4.01952e-06
2.99839e-06
5.58467e-06
2.2444e-06
6.94881e-06
1.71109e-06
8.11553e-06
1.33319e-06
9.10701e-06
1.06042e-06
9.94933e-06
8.58713e-07
1.06667e-05
7.05748e-07
1.12796e-05
5.8691e-07
1.1805e-05
4.925e-07
1.22563e-05
4.15956e-07
1.26443e-05
3.52737e-07
1.29779e-05
2.99626e-07
1.32639e-05
2.54287e-07
1.35079e-05
2.14989e-07
1.37144e-05
1.80416e-07
1.3887e-05
1.49547e-07
1.40284e-05
1.21569e-07
1.4141e-05
9.58202e-08
1.42264e-05
7.1743e-08
1.42857e-05
4.88543e-08
2.67189e-08
-2.34978e-07
5.45992e-06
1.80398e-06
4.48912e-06
4.40145e-06
2.74661e-06
6.72175e-06
1.71336e-06
8.60683e-06
1.11332e-06