/*--------------------------------*- C++ -*----------------------------------*\
| =========                 |                                                 |
| \\      /  F ield         | OpenFOAM: The Open Source CFD Toolbox           |
|  \\    /   O peration     | Version:  v2012                                 |
|   \\  /    A nd           | Website:  www.openfoam.com                      |
|    \\/     M anipulation  |                                                 |
\*---------------------------------------------------------------------------*/
FoamFile
{
    version     2.0;
    format      ascii;
    class       volScalarField;
    location    "0.15";
    object      p;
}
// * * * * * * * * * * * * * * * * * * * * * * * * * * * * * * * * * * * * * //

dimensions      [0 2 -2 0 0 0 0];


internalField   nonuniform List<scalar> 
2500
(
8.96636e-06
-0.000549932
-0.00228316
-0.00489952
-0.00798196
-0.0112014
-0.0143013
-0.017082
-0.0193924
-0.0211219
-0.0221929
-0.0225551
-0.0221805
-0.0210606
-0.0192026
-0.0166274
-0.0133678
-0.00946692
-0.00497646
4.40468e-05
0.00552841
0.0114046
0.0175957
0.0240204
0.0305939
0.0372288
0.0438361
0.0503258
0.0566082
0.0625949
0.0682001
0.0733422
0.0779448
0.0819389
0.0852641
0.0878709
0.0897222
0.0907958
0.0910865
0.0906083
0.0893976
0.0875162
0.0850547
0.082138
0.0789304
0.0756426
0.0725377
0.0699423
0.0682624
0.0677553
0.000578983
1.71778e-05
-0.00141968
-0.00350921
-0.00595757
-0.00852401
-0.0110066
-0.0132389
-0.0150888
-0.0164554
-0.0172648
-0.0174667
-0.0170309
-0.0159444
-0.0142094
-0.0118407
-0.00886474
-0.0053175
-0.00124362
0.00330482
0.00826925
0.0135854
0.0191844
0.024993
0.0309348
0.0369311
0.0429015
0.048765
0.0544411
0.0598506
0.0649172
0.0695683
0.073737
0.0773631
0.0803949
0.0827908
0.0845211
0.0855698
0.0859367
0.0856391
0.0847144
0.0832222
0.0812471
0.0789012
0.0763274
0.0737006
0.0712276
0.0691473
0.0677512
0.0672485
0.00231581
0.00145419
7.0476e-06
-0.00188047
-0.00402118
-0.00623242
-0.00835338
-0.0102477
-0.0118035
-0.0129322
-0.0135675
-0.0136625
-0.0131879
-0.0121298
-0.0104879
-0.00827379
-0.00550953
-0.00222649
0.00153585
0.00573088
0.0103058
0.0152023
0.0203576
0.0257048
0.0311741
0.0366933
0.0421888
0.0475864
0.0528125
0.0577947
0.0624635
0.0667533
0.0706034
0.07396
0.0767771
0.0790183
0.0806584
0.0816848
0.0820994
0.0819199
0.0811819
0.0799406
0.0782718
0.0762741
0.0740688
0.0718003
0.0696342
0.0677543
0.0663523
0.0655721
0.00496068
0.0035581
0.00187133
-4.55972e-05
-0.00210924
-0.00417816
-0.00612299
-0.0078343
-0.00922005
-0.0102057
-0.0107343
-0.0107648
-0.0102712
-0.00924099
-0.00767344
-0.00557871
-0.00297651
0.000104883
0.0036296
0.00755509
0.0118329
0.0164094
0.0212266
0.0262227
0.031333
0.0364904
0.0416266
0.0466728
0.0515604
0.0562223
0.0605941
0.0646148
0.0682285
0.0713854
0.0740432
0.0761688
0.077739
0.0787425
0.0791813
0.0790715
0.0784452
0.0773508
0.0758548
0.0740413
0.072012
0.069885
0.0677954
0.0658878
0.0642563
0.0629622
0.00813494
0.0060629
0.00400931
0.00193602
-0.000176581
-0.00222076
-0.00409355
-0.00571024
-0.00699804
-0.00789665
-0.0083592
-0.00835189
-0.00785328
-0.00685325
-0.00535214
-0.00335971
-0.000894352
0.0020178
0.00534364
0.00904382
0.0130735
0.0173831
0.0219186
0.0266226
0.0314347
0.0362923
0.0411317
0.0458882
0.0504978
0.0548976
0.0590271
0.062829
0.0662509
0.069246
0.0717745
0.073805
0.0753153
0.0762944
0.0767426
0.0766735
0.0761143
0.0751064
0.0737059
0.0719832
0.0700215
0.0679149
0.0657737
0.0637109
0.0617233
0.059784
0.0115505
0.00875476
0.00625841
0.00394049
0.00168599
-0.000423864
-0.00230753
-0.00390207
-0.00515236
-0.00601171
-0.00644355
-0.0064217
-0.00592998
-0.00496169
-0.00351898
-0.00161217
0.000740831
0.00351518
0.00667972
0.0101976
0.0140269
0.0181212
0.02243
0.0268993
0.0314725
0.0360909
0.040694
0.0452211
0.0496115
0.0538055
0.0577458
0.0613778
0.0646513
0.0675216
0.0699502
0.0719064
0.0733679
0.0743226
0.0747687
0.0747162
0.0741866
0.0732142
0.0718451
0.0701366
0.0681553
0.065975
0.0636862
0.0613777
0.0589553
0.0563134
0.0149877
0.0114555
0.00847397
0.00585062
0.00338559
0.00114032
-0.000820334
-0.00245192
-0.00371496
-0.00457525
-0.00500615
-0.00498909
-0.00451353
-0.0035767
-0.0021832
-0.000344631
0.00192086
0.00458899
0.00762988
0.0110085
0.014685
0.0186155
0.0227523
0.0270443
0.0314378
0.0358769
0.0403043
0.0446619
0.0488916
0.0529361
0.0567402
0.0602511
0.0634201
0.0662031
0.0685622
0.0704662
0.071892
0.0728254
0.0732617
0.0732066
0.0726762
0.0716971
0.0703061
0.0685492
0.0664783
0.0641508
0.061642
0.0590234
0.0561205
0.0527596
0.0182754
0.0140158
0.0105293
0.00756236
0.00484006
0.00240959
0.000323191
-0.00139007
-0.00270426
-0.00359636
-0.00404893
-0.00405078
-0.00359704
-0.00268912
-0.00133451
0.00045344
0.00265576
0.00524818
0.00820144
0.0114816
0.0150506
0.0188663
0.0228831
0.0270521
0.0313219
0.035639
0.039948
0.044193
0.0483177
0.0522664
0.0559851
0.0594221
0.0625289
0.0652616
0.0675816
0.0694568
0.0708621
0.0717807
0.0722044
0.0721342
0.0715806
0.0705632
0.0691101
0.0672572
0.0650445
0.0625158
0.0597361
0.0567651
0.0533577
0.0492824
0.0212803
0.0163111
0.0123136
0.00898054
0.00597048
0.00332059
0.00107386
-0.000753319
-0.00214657
-0.00309273
-0.00358275
-0.00361234
-0.00318219
-0.00229795
-0.000970225
0.000785523
0.00294911
0.00549579
0.00839644
0.0116178
0.0151227
0.0188705
0.022817
0.026915
0.0311148
0.0353644
0.0396101
0.0437972
0.0478706
0.0517755
0.0554582
0.0588672
0.0619539
0.0646734
0.0669859
0.0688574
0.0702602
0.0711744
0.0715878
0.0714967
0.0709057
0.0698278
0.0682837
0.0663003
0.0639079
0.0611396
0.0580539
0.0547032
0.0507802
0.0460031
0.023896
0.018237
0.0137294
0.0100179
0.006701
0.00380903
0.00137841
-0.000584859
-0.00207623
-0.00309116
-0.00362812
-0.00368925
-0.00328051
-0.00241177
-0.00109685
0.000646453
0.00279644
0.00532749
0.00821023
0.0114116
0.014895
0.0186205
0.0225451
0.0266227
0.0308045
0.0350398
0.0392758
0.0434584
0.0475331
0.0514452
0.055141
0.0585682
0.0616773
0.0644218
0.0667601
0.0686554
0.0700772
0.0710016
0.0714123
0.0713006
0.0706655
0.0695137
0.067859
0.0657213
0.0631225
0.060088
0.0566723
0.052924
0.0484804
0.043015
0.0260344
0.0197037
0.0146901
0.0105943
0.00695925
0.00381113
0.00118171
-0.000931619
-0.00253266
-0.0036244
-0.00421208
-0.00430373
-0.00391032
-0.00304582
-0.0017273
2.49779e-05
0.00218755
0.00473369
0.00763337
0.0108534
0.0143573
0.0181056
0.0220557
0.0261624
0.0303775
0.0346507
0.0389296
0.0431606
0.0472888
0.0512592
0.0550172
0.0585094
0.0616846
0.0644942
0.0668939
0.0688437
0.0703096
0.0712635
0.0716845
0.0715586
0.0708796
0.0696481
0.067872
0.0655647
0.062742
0.059423
0.0556607
0.051503
0.0465359
0.0403921
0.0276199
0.0206315
0.0151167
0.0106344
0.00667556
0.00326358
0.000427171
-0.00184346
-0.00355935
-0.00473011
-0.00536707
-0.00548373
-0.00509576
-0.00422111
-0.00288009
-0.00109551
0.00110723
0.00370004
0.00665204
0.00992951
0.0134959
0.0173116
0.0213345
0.0255193
0.0298183
0.0341812
0.0385556
0.0428875
0.0471215
0.0512017
0.055072
0.0586774
0.0619642
0.0648812
0.0673808
0.0694195
0.0709587
0.0719662
0.0724157
0.0722884
0.0715722
0.0702624
0.0683611
0.0658766
0.0628193
0.0592039
0.0550837
0.0505078
0.0450138
0.0381959
0.0285842
0.0209477
0.0149356
0.0100668
0.00578194
0.00210304
-0.000943289
-0.00337301
-0.00520352
-0.00645039
-0.00713048
-0.0072624
-0.00686628
-0.00596394
-0.00457892
-0.00273663
-0.000464516
0.00220779
0.00524831
0.0086226
0.0122936
0.0162217
0.0203643
0.0246763
0.0291098
0.0336142
0.0381367
0.0426226
0.0470154
0.0512578
0.055292
0.0590605
0.0625067
0.0655764
0.0682179
0.0703835
0.0720301
0.0731201
0.0736223
0.073512
0.0727718
0.0713914
0.0693679
0.0667047
0.063408
0.0594892
0.0550031
0.0500014
0.043975
0.0364805
0.028863
0.020583
0.0140762
0.00882152
0.00421095
0.000265484
-0.00298956
-0.00557565
-0.00751591
-0.00883139
-0.00954415
-0.00967757
-0.00925614
-0.00830542
-0.00685218
-0.0049245
-0.00255198
0.000234083
0.00340044
0.00691173
0.0107303
0.0148158
0.0191256
0.0236141
0.0282329
0.032931
0.0376548
0.0423485
0.0469543
0.051413
0.0556644
0.0596482
0.0633047
0.0665755
0.0694048
0.07174
0.0735327
0.0747398
0.0753243
0.0752557
0.0745108
0.073074
0.0709371
0.0680992
0.0645631
0.0603373
0.0554794
0.0500447
0.0434774
0.0352968
0.028393
0.0194698
0.0124686
0.00682916
0.00189459
-0.00231451
-0.00577373
-0.0085096
-0.0105507
-0.0119231
-0.012654
-0.0127714
-0.0123039
-0.011281
-0.00973248
-0.00768933
-0.00518332
-0.00224756
0.0010833
0.00477284
0.00878252
0.0130715
0.0175964
0.0223112
0.0271669
0.0321116
0.0370908
0.0420474
0.0469218
0.0516525
0.0561768
0.0604311
0.0643518
0.0678763
0.0709436
0.0734958
0.0754788
0.0768432
0.0775458
0.0775498
0.0768259
0.0753526
0.073117
0.0701138
0.0663422
0.061809
0.0565747
0.050699
0.0435791
0.034696
0.0271103
0.0175395
0.0100425
0.004019
-0.00123678
-0.00570453
-0.00936053
-0.0122362
-0.0143654
-0.0157793
-0.0165099
-0.0165899
-0.0160522
-0.0149298
-0.0132562
-0.0110649
-0.0083901
-0.00526684
-0.00173124
0.00217906
0.00642463
0.0109639
0.0157527
0.0207444
0.0258892
0.0311345
0.0364244
0.0417003
0.0469006
0.0519615
0.0568171
0.0614001
0.0656429
0.0694776
0.0728381
0.0756602
0.0778834
0.0794516
0.0803145
0.0804285
0.0797576
0.0782743
0.0759601
0.0728057
0.0688068
0.0639681
0.0583539
0.0520287
0.0443408
0.0347317
0.0249483
0.0147217
0.00672512
0.000318001
-0.00525544
-0.0099751
-0.0138179
-0.0168203
-0.0190214
-0.0204575
-0.0211655
-0.0211829
-0.0205469
-0.0192947
-0.0174629
-0.015088
-0.0122068
-0.00885613
-0.00507383
-0.000898744
0.00362867
0.008466
0.0135685
0.0188886
0.024376
0.0299768
0.0356341
0.0412873
0.046873
0.0523246
0.0575728
0.0625465
0.0671731
0.0713796
0.0750936
0.0782443
0.080764
0.082589
0.0836614
0.0839298
0.083351
0.0818905
0.0795241
0.0762377
0.0720234
0.0668838
0.0608871
0.0541027
0.045828
0.035463
0.0218369
0.0109421
0.00244036
-0.00435047
-0.0102373
-0.0152005
-0.0192178
-0.0223306
-0.0245836
-0.0260186
-0.0266777
-0.0266034
-0.0258375
-0.0244212
-0.0223949
-0.0197981
-0.01667
-0.0130499
-0.00897695
-0.00449147
0.000365132
0.00554963
0.0110166
0.0167178
0.022602
0.0286147
0.0346973
0.0407879
0.0468205
0.052726
0.0584314
0.0638614
0.0689382
0.0735831
0.0777167
0.0812611
0.0841405
0.0862827
0.0876213
0.0880961
0.0876557
0.0862581
0.0838722
0.0804784
0.0760648
0.0706316
0.0642508
0.0569969
0.0481131
0.0369559
0.0177005
0.00612176
-0.00289279
-0.0100678
-0.0162631
-0.0214597
-0.0256363
-0.0288399
-0.0311212
-0.0325277
-0.0331073
-0.0329078
-0.031976
-0.0303575
-0.0280966
-0.0252362
-0.0218181
-0.0178838
-0.0134743
-0.00863098
-0.00339636
0.00218562
0.00806893
0.0142049
0.0205415
0.0270234
0.0335909
0.0401804
0.046724
0.0531492
0.0593797
0.0653357
0.0709339
0.0760891
0.0807149
0.084725
0.0880347
0.0905626
0.0922323
0.0929741
0.0927268
0.0914397
0.0890741
0.0856038
0.0810119
0.0752954
0.0685303
0.0607959
0.0512777
0.0392858
0.0124579
0.000175534
-0.00936129
-0.0169213
-0.0234193
-0.0288371
-0.0331549
-0.036426
-0.0387075
-0.0400535
-0.0405181
-0.040155
-0.0390167
-0.0371535
-0.034614
-0.0314445
-0.0276901
-0.0233942
-0.0185996
-0.0133492
-0.0076862
-0.00165511
0.00469761
0.0113229
0.0181684
0.0251781
0.0322915
0.0394433
0.0465637
0.0535774
0.0604045
0.0669602
0.0731559
0.0788994
0.0840964
0.0886516
0.0924705
0.0954613
0.0975364
0.0986149
0.0986248
0.0975049
0.0952073
0.0916982
0.0869544
0.080969
0.0738211
0.0655952
0.0554143
0.0425391
0.00602058
-0.00698885
-0.0170594
-0.0250053
-0.0317991
-0.0374236
-0.0418612
-0.045172
-0.0474207
-0.0486686
-0.0489771
-0.0484067
-0.0470157
-0.0448602
-0.0419933
-0.0384653
-0.0343244
-0.0296164
-0.024386
-0.0186771
-0.0125336
-0.00600054
0.000875633
0.0080458
0.0154576
0.0230547
0.0307759
0.038555
0.0463202
0.0539937
0.0614919
0.0687255
0.0755999
0.0820156
0.0878699
0.0930577
0.0974738
0.101014
0.103579
0.105075
0.105416
0.10453
0.102358
0.0988559
0.0939933
0.0877579
0.0802315
0.071503
0.0606285
0.0468157
-0.00170814
-0.0154723
-0.02609
-0.0344229
-0.0415039
-0.0473177
-0.0518493
-0.0551668
-0.0573436
-0.0584497
-0.0585544
-0.057726
-0.0560301
-0.0535287
-0.0502803
-0.0463397
-0.0417581
-0.0365842
-0.0308642
-0.0246432
-0.0179656
-0.0108763
-0.0034217
0.00434958
0.0123856
0.0206302
0.0290222
0.0374946
0.0459743
0.0543813
0.0626286
0.0706222
0.0782615
0.0854396
0.0920448
0.0979614
0.103072
0.10726
0.11041
0.112415
0.113175
0.112601
0.110622
0.107182
0.102242
0.0957813
0.087884
0.078643
0.0670416
0.0522306
-0.0108343
-0.0253857
-0.0365663
-0.0452872
-0.0526448
-0.0586266
-0.063221
-0.0665058
-0.0685644
-0.0694768
-0.0693221
-0.0681775
-0.0661168
-0.0632092
-0.059519
-0.0551059
-0.0500249
-0.0443273
-0.038061
-0.031272
-0.0240048
-0.0163041
-0.0082154
0.000213621
0.00893204
0.0178846
0.0270107
0.0362433
0.0455085
0.0547245
0.0638015
0.072641
0.0811366
0.0891737
0.0966309
0.103381
0.109295
0.114239
0.118083
0.120703
0.12198
0.121811
0.120106
0.116796
0.111828
0.105175
0.0969187
0.0871566
0.0747926
0.0589167
-0.0214749
-0.0368519
-0.0486138
-0.0577231
-0.065344
-0.0714675
-0.076087
-0.0792914
-0.0811765
-0.081834
-0.0813544
-0.0798259
-0.0773317
-0.0739492
-0.0697496
-0.064798
-0.0591535
-0.0528701
-0.0459975
-0.038582
-0.0306683
-0.0222999
-0.013521
-0.00437761
0.00508117
0.0148018
0.024725
0.0347848
0.044907
0.055009
0.0649985
0.0747734
0.0842213
0.0932201
0.101638
0.109338
0.116172
0.121995
0.126656
0.130011
0.131922
0.132265
0.13093
0.12783
0.122898
0.116092
0.107495
0.0972063
0.0840422
0.0670277
-0.0337599
-0.0500081
-0.0623726
-0.07187
-0.0797372
-0.0859699
-0.090568
-0.0936342
-0.095279
-0.0956083
-0.0947268
-0.0927351
-0.0897279
-0.0857921
-0.0810069
-0.0754434
-0.0691652
-0.0622292
-0.0546864
-0.0465837
-0.0379648
-0.0288717
-0.0193465
-0.00943263
0.000823608
0.0113714
0.0221539
0.0331069
0.0441575
0.055223
0.0662095
0.0770118
0.0875123
0.0975815
0.107078
0.11585
0.123738
0.130574
0.13619
0.140419
0.143098
0.144077
0.143226
0.140435
0.135614
0.128709
0.119798
0.108979
0.0949753
0.0767412
-0.0478344
-0.0650085
-0.0780008
-0.0878848
-0.0959762
-0.102277
-0.106796
-0.109653
-0.110976
-0.11089
-0.109514
-0.106967
-0.103354
-0.0987749
-0.0933178
-0.0870605
-0.0800715
-0.0724105
-0.06413
-0.0552765
-0.0458923
-0.0360172
-0.0256901
-0.0149507
-0.00384157
0.00759054
0.0192925
0.0312033
0.0432524
0.0553581
0.0674266
0.0793503
0.0910073
0.102261
0.11296
0.12294
0.132024
0.140025
0.146752
0.152011
0.155612
0.157377
0.157145
0.154779
0.150165
0.143227
0.134036
0.12269
0.107806
0.0882627
-0.0638623
-0.0820284
-0.0956781
-0.105945
-0.114232
-0.120548
-0.124917
-0.127477
-0.128379
-0.12777
-0.125791
-0.122577
-0.118251
-0.112925
-0.106698
-0.0996554
-0.0918706
-0.0834065
-0.0743163
-0.0646459
-0.0544354
-0.043721
-0.0325374
-0.0209196
-0.00890457
0.00346612
0.0161446
0.0290747
0.0421898
0.055411
0.0686457
0.0817855
0.0947053
0.107262
0.119296
0.130628
0.141065
0.150398
0.158411
0.164879
0.169581
0.172304
0.172852
0.171053
0.166763
0.159876
0.150455
0.13859
0.122783
0.101831
-0.0820301
-0.101269
-0.115611
-0.126255
-0.134698
-0.140964
-0.14509
-0.147244
-0.147604
-0.146343
-0.143628
-0.139617
-0.134451
-0.128259
-0.12115
-0.113219
-0.104544
-0.0951925
-0.0852166
-0.0746609
-0.063562
-0.0519517
-0.0398591
-0.0273127
-0.0143425
-0.000983152
0.0127246
0.0267311
0.0409756
0.055384
0.0698667
0.0843165
0.0986066
0.112589
0.126096
0.138935
0.150895
0.161745
0.171238
0.17912
0.18513
0.189014
0.190533
0.189474
0.18565
0.178922
0.169335
0.156968
0.140196
0.117723
-0.102553
-0.122966
-0.138041
-0.14905
-0.157599
-0.163727
-0.167495
-0.169104
-0.168771
-0.1667
-0.16309
-0.158125
-0.151971
-0.144773
-0.136655
-0.127721
-0.118054
-0.107723
-0.096781
-0.0852694
-0.0732202
-0.0606591
-0.0476078
-0.0340866
-0.0201171
-0.00572456
0.00905898
0.0241929
0.0396245
0.0552866
0.0710951
0.086946
0.102713
0.118247
0.133369
0.147879
0.161546
0.174114
0.185309
0.194836
0.202393
0.207676
0.210395
0.210284
0.207104
0.200672
0.191004
0.178166
0.160383
0.136263
-0.125684
-0.147393
-0.163252
-0.174607
-0.183191
-0.189067
-0.192328
-0.193221
-0.192005
-0.188929
-0.184231
-0.178128
-0.170811
-0.162447
-0.153175
-0.143108
-0.132335
-0.120927
-0.108935
-0.0963956
-0.0833349
-0.0697707
-0.0557153
-0.041179
-0.0261725
-0.0107099
0.0051886
0.021493
0.0381613
0.0551362
0.0723419
0.0896804
0.107029
0.124237
0.141124
0.157476
0.173047
0.187556
0.200697
0.212133
0.221512
0.228474
0.232667
0.233757
0.231443
0.225479
0.215846
0.202581
0.183742
0.15783
-0.151722
-0.174883
-0.191581
-0.203253
-0.211776
-0.21725
-0.219812
-0.219767
-0.217433
-0.213114
-0.207094
-0.19963
-0.190946
-0.181231
-0.17064
-0.159296
-0.147295
-0.134705
-0.121575
-0.107936
-0.093805
-0.0791895
-0.0640906
-0.0485059
-0.0324329
-0.0158722
0.00116992
0.0186775
0.0366221
0.0549592
0.0736243
0.0925294
0.111559
0.130564
0.149364
0.167737
0.185421
0.202113
0.217471
0.231114
0.242635
0.251607
0.257602
0.260206
0.259032
0.253759
0.244311
0.230686
0.210748
0.182875
-0.181027
-0.205837
-0.223441
-0.23538
-0.24371
-0.248582
-0.250193
-0.248928
-0.245181
-0.239323
-0.231698
-0.22261
-0.212319
-0.201039
-0.188944
-0.176166
-0.162803
-0.148922
-0.134566
-0.119756
-0.1045
-0.0887914
-0.0726173
-0.0559603
-0.0388022
-0.021127
-0.00292446
0.0158065
0.0350541
0.0547901
0.0749653
0.0955053
0.116305
0.137226
0.158087
0.178664
0.198683
0.217818
0.235694
0.251883
0.265915
0.277286
0.285477
0.289977
0.290291
0.285993
0.276931
0.263045
0.241965
0.211933
-0.214045
-0.240749
-0.259334
-0.271464
-0.279415
-0.283414
-0.283747
-0.2809
-0.275368
-0.267609
-0.258036
-0.24701
-0.234833
-0.221747
-0.207941
-0.193556
-0.17869
-0.163405
-0.147735
-0.131689
-0.115259
-0.0984237
-0.0811533
-0.0634121
-0.045163
-0.0263709
-0.00700575
0.0129534
0.0335152
0.0546713
0.0763921
0.0986215
0.121271
0.144215
0.16728
0.190246
0.212829
0.234689
0.255415
0.274531
0.291499
0.305729
0.316595
0.323461
0.3257
0.322747
0.314343
0.300335
0.278076
0.245647
-0.25133
-0.280241
-0.299888
-0.312086
-0.319396
-0.322156
-0.320776
-0.315883
-0.308099
-0.297991
-0.286058
-0.272726
-0.258342
-0.243176
-0.227433
-0.211256
-0.194741
-0.177939
-0.160871
-0.143529
-0.125888
-0.107905
-0.0895307
-0.0707079
-0.0513777
-0.0314828
-0.0109705
0.0102037
0.0320722
0.0546507
0.0779339
0.101889
0.126451
0.151512
0.176917
0.202452
0.227838
0.252718
0.276655
0.299127
0.319523
0.337156
0.351275
0.361094
0.365813
0.364689
0.357307
0.343383
0.319918
0.284802
-0.293588
-0.325106
-0.345894
-0.357968
-0.364262
-0.365282
-0.361614
-0.354074
-0.343451
-0.330445
-0.315659
-0.299591
-0.282634
-0.265086
-0.24716
-0.229
-0.210689
-0.192263
-0.173723
-0.155039
-0.136162
-0.117027
-0.0975578
-0.0776739
-0.0572914
-0.0363276
-0.0147037
0.00765128
0.0307971
0.0547781
0.079618
0.105314
0.131829
0.159084
0.186948
0.215227
0.24365
0.271861
0.299403
0.325708
0.350097
0.371775
0.389849
0.403351
0.411264
0.412606
0.406746
0.393202
0.368526
0.330367
-0.341737
-0.37637
-0.398367
-0.41001
-0.414748
-0.413336
-0.406615
-0.395654
-0.381455
-0.364883
-0.346658
-0.327358
-0.30742
-0.287161
-0.266798
-0.246461
-0.226214
-0.206069
-0.185998
-0.165945
-0.145828
-0.125556
-0.105023
-0.0841204
-0.0627365
-0.0407601
-0.0180838
0.00539348
0.0297625
0.0551
0.0814641
0.108888
0.13737
0.166871
0.197292
0.228472
0.260165
0.292025
0.323589
0.354258
0.383285
0.409767
0.432648
0.450746
0.462772
0.467431
0.463785
0.451058
0.425205
0.383557
-0.396992
-0.435393
-0.458621
-0.469346
-0.47174
-0.466938
-0.456141
-0.440759
-0.422065
-0.401118
-0.378771
-0.355677
-0.332312
-0.308999
-0.285941
-0.263244
-0.24094
-0.219003
-0.197368
-0.175942
-0.154609
-0.133241
-0.111701
-0.0898481
-0.0675395
-0.044633
-0.0209896
0.00352422
0.0290337
0.0556522
0.0834771
0.112583
0.143016
0.174779
0.207826
0.24204
0.277217
0.313043
0.349067
0.384678
0.419075
0.451248
0.479973
0.503813
0.521146
0.530265
0.529805
0.518547
0.491627
0.445931
-0.461003
-0.504003
-0.528385
-0.537412
-0.536302
-0.526771
-0.510533
-0.489446
-0.465118
-0.438833
-0.411578
-0.384072
-0.356807
-0.330094
-0.304101
-0.278887
-0.254434
-0.230667
-0.20747
-0.184704
-0.162211
-0.139821
-0.117362
-0.0946575
-0.0715303
-0.0478052
-0.0233096
0.00212483
0.0286605
0.0564509
0.0856373
0.116343
0.148667
0.182671
0.218371
0.255714
0.29456
0.334651
0.37558
0.41675
0.457334
0.496235
0.532054
0.563077
0.587275
0.602408
0.606516
0.597717
0.569979
0.519528
-0.536062
-0.584711
-0.60996
-0.616025
-0.609694
-0.593561
-0.570058
-0.541626
-0.510272
-0.477521
-0.444478
-0.411901
-0.380265
-0.34983
-0.320698
-0.292857
-0.266215
-0.240628
-0.215919
-0.191891
-0.168335
-0.145038
-0.121785
-0.0983605
-0.0745535
-0.0501534
-0.0249527
0.00125351
0.0286665
0.0574826
0.087891
0.120069
0.154177
0.190348
0.228673
0.269187
0.311838
0.356458
0.402721
0.45009
0.497755
0.54457
0.588985
0.628995
0.662095
0.685369
0.696035
0.691225
0.663186
0.607096
-0.625457
-0.681045
-0.706442
-0.707484
-0.693366
-0.668004
-0.634815
-0.596968
-0.556919
-0.516415
-0.476641
-0.438331
-0.401886
-0.367467
-0.335064
-0.304557
-0.275756
-0.248428
-0.222319
-0.197163
-0.172694
-0.148648
-0.124766
-0.100794
-0.0764815
-0.0515846
-0.02586
0.00093377
0.0290378
0.0586928
0.0901387
0.123612
0.159341
0.19754
0.238394
0.282045
0.328562
0.377907
0.429885
0.484081
0.539773
0.595833
0.650618
0.701856
0.746518
0.780858
0.800986
0.80257
0.775256
0.712461
-0.73407
-0.798063
-0.822021
-0.814655
-0.788903
-0.750639
-0.704581
-0.654756
-0.604064
-0.554407
-0.506945
-0.462296
-0.420699
-0.382139
-0.346442
-0.313338
-0.282506
-0.253604
-0.226282
-0.2002
-0.175026
-0.150442
-0.126142
-0.101833
-0.0772284
-0.052049
-0.0260175
0.00114299
0.0297126
0.0599763
0.0922258
0.126759
0.16388
0.203892
0.247091
0.293746
0.344083
0.39824
0.456217
0.517803
0.582462
0.649203
0.716406
0.781614
0.841292
0.890726
0.924582
0.936397
0.91182
0.841167
-0.869472
-0.943186
-0.962378
-0.941007
-0.897858
-0.841599
-0.778562
-0.713676
-0.650172
-0.589932
-0.533916
-0.48247
-0.435546
-0.392862
-0.354009
-0.31852
-0.285911
-0.255707
-0.227453
-0.200722
-0.175115
-0.150258
-0.1258
-0.101409
-0.0767629
-0.0515516
-0.0254664
0.00180272
0.030572
0.0611688
0.0939352
0.129232
0.167439
0.208959
0.254206
0.303606
0.357568
0.416459
0.480551
0.549937
0.624409
0.703286
0.78517
0.867621
0.946729
1.01678
1.07066
1.0989
1.08099
1.00163
-1.04398
-1.12751
-1.13515
-1.09051
-1.02138
-0.94018
-0.855015
-0.771533
-0.692975
-0.620864
-0.555674
-0.497252
-0.445101
-0.398559
-0.356906
-0.319426
-0.285444
-0.254335
-0.22553
-0.198511
-0.172812
-0.148006
-0.123697
-0.0995185
-0.0751199
-0.0501623
-0.0243108
0.00277266
0.0314361
0.0620443
0.0949861
0.130681
0.169587
0.212203
0.259075
0.310794
0.36799
0.431307
0.501365
0.578687
0.663571
0.755889
0.854784
0.958212
1.06224
1.16037
1.24354
1.2983
1.29474
1.20733
-1.27887
-1.36792
-1.35023
-1.26708
-1.1594
-1.04408
-0.930659
-0.824856
-0.729239
-0.644399
-0.569894
-0.504776
-0.447901
-0.398103
-0.354278
-0.315422
-0.280646
-0.249166
-0.220297
-0.193437
-0.168055
-0.143675
-0.119868
-0.0962361
-0.0724065
-0.0480197
-0.0227207
0.00384984
0.0320644
0.0623181
0.0950391
0.130699
0.169824
0.21301
0.26093
0.314352
0.374139
0.441256
0.51675
0.601699
0.697114
0.803743
0.921734
1.05006
1.18553
1.32154
1.44746
1.54509
1.57101
1.48124
-1.61284
-1.69012
-1.61927
-1.47285
-1.30887
-1.148
-0.999726
-0.868331
-0.754471
-0.656934
-0.573786
-0.502935
-0.442389
-0.390367
-0.345326
-0.305957
-0.271152
-0.239977
-0.211641
-0.185467
-0.160872
-0.137345
-0.11443
-0.0917115
-0.0688016
-0.0453292
-0.020928
0.00477325
0.0321623
0.0616544
0.0937057
0.128827
0.167603
0.210708
0.258933
0.31321
0.374643
0.444532
0.524401
0.615998
0.721257
0.842169
0.980495
1.13716
1.31104
1.49708
1.68468
1.8515
1.93683
1.8647
-2.11666
-2.13158
-1.95344
-1.70516
-1.4612
-1.24195
-1.05306
-0.894439
-0.762875
-0.654176
-0.564265
-0.489566
-0.42708
-0.374357
-0.329414
-0.290648
-0.256761
-0.226696
-0.199581
-0.174687
-0.1514
-0.129189
-0.107585
-0.0861687
-0.0645482
-0.0423515
-0.019212
0.00524307
0.0314047
0.0596953
0.0905838
0.124604
0.162375
0.20463
0.252248
0.306298
0.368092
0.439249
0.521771
0.618133
0.731349
0.865005
1.02315
1.20991
1.42827
1.67794
1.95232
2.22901
2.43088
2.43192
-2.91879
-2.74195
-2.3591
-1.95413
-1.60133
-1.31129
-1.07885
-0.894526
-0.748477
-0.632189
-0.53885
-0.463185
-0.401162
-0.349704
-0.306453
-0.269588
-0.23768
-0.209597
-0.184429
-0.16143
-0.139978
-0.119543
-0.0996646
-0.0799294
-0.0599575
-0.0393873
-0.0178632
0.00497676
0.0295139
0.0561626
0.0853872
0.117722
0.153794
0.194361
0.240348
0.292907
0.353494
0.423973
0.506755
0.60499
0.722806
0.865601
1.04034
1.2557
1.52174
1.84815
2.23976
2.6837
3.10336
3.31483
-4.30825
-3.58022
-2.81233
-2.18392
-1.69674
-1.33086
-1.05968
-0.857429
-0.704493
-0.587052
-0.495419
-0.422775
-0.364275
-0.316433
-0.276693
-0.243145
-0.214333
-0.18913
-0.166639
-0.146138
-0.127031
-0.108814
-0.0910522
-0.0733561
-0.0553699
-0.0367554
-0.0171801
0.00369477
0.0262269
0.0508068
0.0778741
0.107938
0.141604
0.179607
0.222862
0.272526
0.330093
0.397531
0.477476
0.57353
0.690697
0.83603
1.01955
1.25555
1.56432
1.97282
2.50869
3.1901
4.01477
4.80842
-7.04616
-4.67302
-3.1391
-2.23593
-1.63552
-1.22711
-0.948424
-0.752902
-0.611088
-0.505295
-0.424447
-0.361325
-0.31108
-0.270366
-0.236797
-0.208624
-0.184537
-0.163524
-0.144791
-0.127697
-0.111716
-0.096405
-0.0813784
-0.0662947
-0.0508398
-0.0347157
-0.0176292
0.000718176
0.0206421
0.042487
0.0666412
0.0935553
0.123765
0.157926
0.196854
0.241591
0.293497
0.354385
0.426737
0.51404
0.62134
0.756158
0.930035
1.16135
1.48063
1.93681
2.59637
3.5721
5.1944
7.67839
-11.6813
-5.75831
-2.98802
-1.87141
-1.28234
-0.928273
-0.70689
-0.559728
-0.455668
-0.378796
-0.320228
-0.274528
-0.238157
-0.208696
-0.18442
-0.164054
-0.146628
-0.131387
-0.11773
-0.105168
-0.0932932
-0.0817581
-0.0702603
-0.0585281
-0.0463111
-0.0333703
-0.0194708
-0.00437291
0.0121755
0.0304487
0.0507539
0.0734447
0.098939
0.127742
0.16048
0.197942
0.241151
0.29146
0.350709
0.421484
0.50756
0.614716
0.752322
0.936908
1.20043
1.60436
2.26056
3.47181
6.35801
12.4032
)
;

boundaryField
{
    movingWall
    {
        type            zeroGradient;
    }
    fixedWalls
    {
        type            zeroGradient;
    }
    frontAndBack
    {
        type            empty;
    }
}


// ************************************************************************* //
