/*--------------------------------*- C++ -*----------------------------------*\
| =========                 |                                                 |
| \\      /  F ield         | OpenFOAM: The Open Source CFD Toolbox           |
|  \\    /   O peration     | Version:  v2012                                 |
|   \\  /    A nd           | Website:  www.openfoam.com                      |
|    \\/     M anipulation  |                                                 |
\*---------------------------------------------------------------------------*/
FoamFile
{
    version     2.0;
    format      ascii;
    class       volVectorField;
    location    "0.15";
    object      U;
}
// * * * * * * * * * * * * * * * * * * * * * * * * * * * * * * * * * * * * * //

dimensions      [0 1 -1 0 0 0 0];


internalField   nonuniform List<vector> 
2500
(
(3.25432e-05 -3.27746e-05 0)
(9.84323e-05 -4.06298e-05 0)
(0.000136862 -2.09148e-05 0)
(0.000105808 7.86002e-06 0)
(-8.95497e-06 3.76703e-05 0)
(-0.000205865 6.52225e-05 0)
(-0.000477596 8.92094e-05 0)
(-0.000814348 0.000109219 0)
(-0.00120521 0.000125229 0)
(-0.00163893 0.000137376 0)
(-0.00210439 0.000145866 0)
(-0.0025908 0.000150929 0)
(-0.00308791 0.000152805 0)
(-0.00358603 0.000151736 0)
(-0.00407612 0.000147959 0)
(-0.0045498 0.000141707 0)
(-0.00499938 0.000133209 0)
(-0.00541787 0.000122689 0)
(-0.00579898 0.000110365 0)
(-0.00613711 9.64553e-05 0)
(-0.00642739 8.11754e-05 0)
(-0.00666566 6.47421e-05 0)
(-0.00684849 4.73749e-05 0)
(-0.00697318 2.92973e-05 0)
(-0.00703782 1.07388e-05 0)
(-0.00704126 -8.0639e-06 0)
(-0.00698315 -2.68657e-05 0)
(-0.006864 -4.54126e-05 0)
(-0.00668513 -6.3442e-05 0)
(-0.00644876 -8.06825e-05 0)
(-0.00615802 -9.68556e-05 0)
(-0.00581693 -0.000111677 0)
(-0.00543042 -0.000124859 0)
(-0.00500433 -0.000136114 0)
(-0.00454543 -0.000145157 0)
(-0.00406131 -0.000151708 0)
(-0.00356043 -0.0001555 0)
(-0.00305198 -0.000156279 0)
(-0.00254586 -0.000153809 0)
(-0.00205256 -0.000147878 0)
(-0.00158302 -0.000138302 0)
(-0.00114849 -0.000124933 0)
(-0.000760291 -0.000107679 0)
(-0.000429542 -8.65367e-05 0)
(-0.000166621 -6.16868e-05 0)
(1.96251e-05 -3.37163e-05 0)
(0.000123268 -4.10248e-06 0)
(0.000144483 2.371e-05 0)
(9.95695e-05 4.16683e-05 0)
(3.20527e-05 3.19884e-05 0)
(4.09338e-05 -9.90242e-05 0)
(9.35447e-05 -9.27561e-05 0)
(4.51162e-05 1.45395e-05 0)
(-0.000168741 0.000161575 0)
(-0.000574912 0.00031771 0)
(-0.00117473 0.000466984 0)
(-0.00195585 0.000601094 0)
(-0.00289808 0.000715991 0)
(-0.0039768 0.000809938 0)
(-0.00516517 0.000882475 0)
(-0.00643558 0.000933877 0)
(-0.00776056 0.000964852 0)
(-0.00911338 0.000976375 0)
(-0.0104684 0.000969584 0)
(-0.0118016 0.000945719 0)
(-0.0130902 0.00090608 0)
(-0.0143134 0.000852006 0)
(-0.015452 0.000784856 0)
(-0.016489 0.000706008 0)
(-0.0174089 0.000616853 0)
(-0.0181983 0.000518799 0)
(-0.0188459 0.000413274 0)
(-0.0193423 0.000301733 0)
(-0.01968 0.00018566 0)
(-0.0198541 6.65796e-05 0)
(-0.0198614 -5.39413e-05 0)
(-0.0197011 -0.000174291 0)
(-0.0193748 -0.000292811 0)
(-0.0188862 -0.000407798 0)
(-0.0182417 -0.000517513 0)
(-0.0174499 -0.000620184 0)
(-0.016522 -0.000714026 0)
(-0.0154714 -0.000797253 0)
(-0.0143141 -0.0008681 0)
(-0.0130685 -0.00092485 0)
(-0.0117551 -0.000965859 0)
(-0.0103965 -0.00098959 0)
(-0.00901729 -0.000994651 0)
(-0.00764361 -0.000979835 0)
(-0.00630286 -0.000944173 0)
(-0.0050233 -0.000887004 0)
(-0.00383342 -0.00080807 0)
(-0.00276124 -0.000707681 0)
(-0.00183322 -0.000586985 0)
(-0.00107272 -0.000448479 0)
(-0.000497783 -0.000296991 0)
(-0.000117792 -0.000141515 0)
(7.20585e-05 1.49451e-06 0)
(0.00010262 0.000101537 0)
(4.20438e-05 9.9585e-05 0)
(2.24008e-05 -0.00013892 0)
(-1.01645e-05 -4.55144e-05 0)
(-0.000233832 0.000239266 0)
(-0.000704764 0.0006081 0)
(-0.00144871 0.00100072 0)
(-0.00246718 0.00138088 0)
(-0.00374443 0.0017271 0)
(-0.00525343 0.00202731 0)
(-0.00696016 0.00227517 0)
(-0.00882662 0.00246795 0)
(-0.0108128 0.00260518 0)
(-0.0128784 0.00268784 0)
(-0.0149836 0.00271792 0)
(-0.0170897 0.00269801 0)
(-0.0191601 0.00263117 0)
(-0.0211604 0.00252071 0)
(-0.0230584 0.00237019 0)
(-0.0248248 0.00218325 0)
(-0.0264329 0.00196368 0)
(-0.027859 0.00171533 0)
(-0.0290824 0.00144212 0)
(-0.0300855 0.00114808 0)
(-0.0308537 0.00083729 0)
(-0.0313758 0.000513953 0)
(-0.0316438 0.000182365 0)
(-0.0316532 -0.000153062 0)
(-0.0314028 -0.0004878 0)
(-0.0308952 -0.000817204 0)
(-0.0301364 -0.00113653 0)
(-0.0291362 -0.00144093 0)
(-0.0279082 -0.00172553 0)
(-0.0264697 -0.00198542 0)
(-0.0248415 -0.00221572 0)
(-0.0230484 -0.00241164 0)
(-0.0211185 -0.00256857 0)
(-0.0190831 -0.00268215 0)
(-0.0169768 -0.00274836 0)
(-0.0148369 -0.00276367 0)
(-0.0127026 -0.00272512 0)
(-0.0106151 -0.00263057 0)
(-0.00861619 -0.00247884 0)
(-0.0067478 -0.00227007 0)
(-0.00505038 -0.00200617 0)
(-0.00356145 -0.00169157 0)
(-0.00231334 -0.00133438 0)
(-0.00133023 -0.00094846 0)
(-0.000624025 -0.000556794 0)
(-0.000188696 -0.000196543 0)
(6.93991e-06 7.24014e-05 0)
(2.52752e-05 0.000146087 0)
(-4.92376e-06 -0.000111907 0)
(-0.00015364 0.000164421 0)
(-0.000598976 0.000709033 0)
(-0.0013706 0.00137723 0)
(-0.00248314 0.00208114 0)
(-0.003934 0.00276352 0)
(-0.00570256 0.00338786 0)
(-0.00775556 0.00393195 0)
(-0.0100515 0.00438307 0)
(-0.0125435 0.00473483 0)
(-0.0151822 0.00498515 0)
(-0.0179168 0.00513484 0)
(-0.020697 0.00518679 0)
(-0.0234738 0.00514524 0)
(-0.0262002 0.00501545 0)
(-0.0288318 0.00480338 0)
(-0.0313271 0.00451544 0)
(-0.033648 0.00415844 0)
(-0.03576 0.00373943 0)
(-0.0376321 0.0032657 0)
(-0.0392375 0.0027447 0)
(-0.0405532 0.0021841 0)
(-0.0415602 0.00159172 0)
(-0.0422439 0.000975582 0)
(-0.042594 0.000343921 0)
(-0.0426048 -0.00029483 0)
(-0.0422748 -0.000932024 0)
(-0.0416074 -0.00155882 0)
(-0.0406108 -0.00216618 0)
(-0.0392977 -0.00274496 0)
(-0.0376859 -0.00328593 0)
(-0.035798 -0.00377984 0)
(-0.0336611 -0.00421757 0)
(-0.0313072 -0.00459019 0)
(-0.0287728 -0.00488917 0)
(-0.0260984 -0.00510649 0)
(-0.0233282 -0.00523488 0)
(-0.0205101 -0.00526804 0)
(-0.0176942 -0.00520091 0)
(-0.0149326 -0.00503003 0)
(-0.0122782 -0.00475393 0)
(-0.00978338 -0.00437379 0)
(-0.00749844 -0.00389422 0)
(-0.0054696 -0.00332449 0)
(-0.00373654 -0.0026804 0)
(-0.00232929 -0.00198717 0)
(-0.001264 -0.00128385 0)
(-0.000537953 -0.000629217 0)
(-0.000129652 -0.000110958 0)
(-6.2187e-07 0.000129816 0)
(-3.36337e-05 -3.14351e-06 0)
(-0.000309419 0.00056692 0)
(-0.000998193 0.00145545 0)
(-0.00209353 0.00249242 0)
(-0.00359241 0.00356782 0)
(-0.00548419 0.0046059 0)
(-0.00774127 0.00555571 0)
(-0.0103234 0.00638452 0)
(-0.0131821 0.00707246 0)
(-0.016263 0.00760874 0)
(-0.0195084 0.007989 0)
(-0.0228594 0.00821351 0)
(-0.0262569 0.00828584 0)
(-0.0296433 0.00821196 0)
(-0.0329631 0.00799955 0)
(-0.0361635 0.00765754 0)
(-0.0391954 0.00719577 0)
(-0.0420133 0.00662477 0)
(-0.044576 0.00595558 0)
(-0.0468465 0.00519967 0)
(-0.0487927 0.00436885 0)
(-0.0503869 0.00347525 0)
(-0.0516066 0.00253135 0)
(-0.0524343 0.00154991 0)
(-0.0528578 0.000544034 0)
(-0.0528701 -0.000472843 0)
(-0.0524698 -0.00148698 0)
(-0.0516608 -0.00248434 0)
(-0.0504531 -0.00345064 0)
(-0.048862 -0.00437139 0)
(-0.0469088 -0.00523204 0)
(-0.0446204 -0.00601807 0)
(-0.0420295 -0.00671518 0)
(-0.039174 -0.00730946 0)
(-0.0360974 -0.00778765 0)
(-0.0328477 -0.00813741 0)
(-0.0294775 -0.00834763 0)
(-0.0260431 -0.00840884 0)
(-0.0226038 -0.00831364 0)
(-0.0192208 -0.00805725 0)
(-0.0159559 -0.00763818 0)
(-0.0128704 -0.00705912 0)
(-0.0100229 -0.00632813 0)
(-0.00746718 -0.00546027 0)
(-0.00525008 -0.00447997 0)
(-0.00340831 -0.00342437 0)
(-0.00196457 -0.00234823 0)
(-0.00092341 -0.00132984 0)
(-0.000279553 -0.000479729 0)
(-2.8149e-05 3.51462e-05 0)
(-6.10272e-05 0.000188237 0)
(-0.000464754 0.00117062 0)
(-0.00140349 0.00249223 0)
(-0.0028314 0.0039681 0)
(-0.00472417 0.00547196 0)
(-0.00706017 0.00691304 0)
(-0.00980269 0.00822774 0)
(-0.0129035 0.00937348 0)
(-0.0163064 0.0103233 0)
(-0.01995 0.0110619 0)
(-0.0237695 0.0115823 0)
(-0.0276985 0.0118841 0)
(-0.0316706 0.0119714 0)
(-0.0356209 0.011852 0)
(-0.0394866 0.0115362 0)
(-0.0432082 0.0110362 0)
(-0.04673 0.0103657 0)
(-0.0500004 0.00953946 0)
(-0.0529724 0.00857302 0)
(-0.0556041 0.00748269 0)
(-0.0578589 0.00628532 0)
(-0.0597053 0.00499827 0)
(-0.0611177 0.00363938 0)
(-0.0620762 0.00222696 0)
(-0.0625669 0.000779808 0)
(-0.0625818 -0.000682852 0)
(-0.0621193 -0.00214134 0)
(-0.0611841 -0.00357558 0)
(-0.0597873 -0.00496517 0)
(-0.0579465 -0.00628947 0)
(-0.0556859 -0.00752779 0)
(-0.0530361 -0.00865952 0)
(-0.0500341 -0.00966439 0)
(-0.046723 -0.0105228 0)
(-0.0431519 -0.0112161 0)
(-0.0393754 -0.011727 0)
(-0.0354529 -0.0120401 0)
(-0.031448 -0.0121424 0)
(-0.0274274 -0.012024 0)
(-0.0234602 -0.0116787 0)
(-0.0196161 -0.0111051 0)
(-0.0159641 -0.0103076 0)
(-0.0125704 -0.00929813 0)
(-0.00949629 -0.00809783 0)
(-0.00679614 -0.00673983 0)
(-0.00451463 -0.00527277 0)
(-0.00268322 -0.00376564 0)
(-0.00131672 -0.00231318 0)
(-0.000429735 -0.00104337 0)
(-5.45041e-05 -0.000139233 0)
(-8.63232e-05 0.000458972 0)
(-0.000614261 0.00197439 0)
(-0.00180093 0.0038215 0)
(-0.00356138 0.00580787 0)
(-0.00584855 0.00779631 0)
(-0.00862786 0.00968463 0)
(-0.0118518 0.0113989 0)
(-0.0154628 0.0128881 0)
(-0.0193967 0.014119 0)
(-0.0235846 0.0150717 0)
(-0.0279548 0.0157373 0)
(-0.032434 0.0161144 0)
(-0.0369495 0.016208 0)
(-0.0414298 0.0160277 0)
(-0.0458062 0.0155866 0)
(-0.0500131 0.0149007 0)
(-0.0539893 0.0139876 0)
(-0.0576781 0.0128669 0)
(-0.0610279 0.0115591 0)
(-0.0639924 0.0100859 0)
(-0.0665313 0.00846983 0)
(-0.06861 0.00673397 0)
(-0.0702001 0.00490221 0)
(-0.0712799 0.00299904 0)
(-0.0718337 0.00104961 0)
(-0.071853 -0.000920354 0)
(-0.0713359 -0.00288455 0)
(-0.0702875 -0.00481617 0)
(-0.0687199 -0.00668798 0)
(-0.0666525 -0.00847251 0)
(-0.0641117 -0.0101422 0)
(-0.0611313 -0.0116696 0)
(-0.0577517 -0.013028 0)
(-0.0540204 -0.0141913 0)
(-0.0499913 -0.0151349 0)
(-0.0457242 -0.0158362 0)
(-0.0412844 -0.0162749 0)
(-0.0367418 -0.0164341 0)
(-0.0321698 -0.0163012 0)
(-0.0276442 -0.0158684 0)
(-0.023242 -0.0151342 0)
(-0.0190393 -0.0141048 0)
(-0.01511 -0.0127959 0)
(-0.0115231 -0.0112344 0)
(-0.00834137 -0.00946176 0)
(-0.00561874 -0.00753696 0)
(-0.0033972 -0.00554123 0)
(-0.00170384 -0.00358257 0)
(-0.000574674 -0.00180159 0)
(-7.88469e-05 -0.000390392 0)
(-0.000109537 0.000804724 0)
(-0.000756345 0.00297276 0)
(-0.00218487 0.00543914 0)
(-0.004273 0.00800896 0)
(-0.00695081 0.0105383 0)
(-0.0101697 0.0129168 0)
(-0.0138702 0.0150629 0)
(-0.0179844 0.0169187 0)
(-0.0224392 0.0184456 0)
(-0.0271581 0.0196204 0)
(-0.0320622 0.0204321 0)
(-0.0370718 0.0208792 0)
(-0.042108 0.0209676 0)
(-0.0470936 0.0207091 0)
(-0.0519545 0.0201199 0)
(-0.05662 0.0192197 0)
(-0.0610242 0.0180311 0)
(-0.0651059 0.0165783 0)
(-0.0688096 0.0148876 0)
(-0.0720856 0.0129863 0)
(-0.0748903 0.010903 0)
(-0.0771864 0.00866728 0)
(-0.0789436 0.00630941 0)
(-0.080138 0.00386067 0)
(-0.0807531 0.00135305 0)
(-0.0807793 -0.00118064 0)
(-0.0802146 -0.00370691 0)
(-0.0790642 -0.00619165 0)
(-0.0773411 -0.00860024 0)
(-0.075066 -0.0108977 0)
(-0.0722671 -0.0130492 0)
(-0.0689804 -0.0150198 0)
(-0.0652495 -0.0167755 0)
(-0.0611252 -0.0182835 0)
(-0.0566654 -0.0195126 0)
(-0.0519346 -0.0204342 0)
(-0.0470029 -0.0210229 0)
(-0.0419459 -0.0212576 0)
(-0.0368429 -0.0211221 0)
(-0.0317761 -0.020607 0)
(-0.0268294 -0.0197104 0)
(-0.022086 -0.01844 0)
(-0.0176276 -0.0168146 0)
(-0.0135316 -0.0148667 0)
(-0.00986983 -0.0126447 0)
(-0.00670689 -0.0102167 0)
(-0.00409655 -0.00767415 0)
(-0.00207931 -0.00513532 0)
(-0.000712772 -0.00274979 0)
(-0.000101168 -0.000714259 0)
(-0.000130972 0.00122118 0)
(-0.000891226 0.00415871 0)
(-0.00255419 0.00733834 0)
(-0.00496309 0.0105656 0)
(-0.00802572 0.0136928 0)
(-0.0116791 0.0166046 0)
(-0.0158508 0.0192137 0)
(-0.020462 0.0214573 0)
(-0.02543 0.023293 0)
(-0.03067 0.0246951 0)
(-0.036096 0.0256514 0)
(-0.0416218 0.0261606 0)
(-0.0471624 0.0262302 0)
(-0.0526354 0.0258746 0)
(-0.0579616 0.0251134 0)
(-0.0630661 0.0239707 0)
(-0.0678785 0.0224738 0)
(-0.0723342 0.0206526 0)
(-0.0763742 0.0185391 0)
(-0.0799458 0.0161668 0)
(-0.0830029 0.0135709 0)
(-0.085506 0.0107875 0)
(-0.0874227 0.00785396 0)
(-0.0887279 0.00480869 0)
(-0.0894038 0.001691 0)
(-0.0894402 -0.00145883 0)
(-0.0888345 -0.00459969 0)
(-0.0875923 -0.00768967 0)
(-0.0857269 -0.0106863 0)
(-0.0832599 -0.0135467 0)
(-0.0802208 -0.016228 0)
(-0.0766475 -0.0186875 0)
(-0.0725858 -0.0208835 0)
(-0.0680895 -0.0227757 0)
(-0.0632197 -0.0243259 0)
(-0.0580448 -0.025499 0)
(-0.0526395 -0.026264 0)
(-0.0470842 -0.0265947 0)
(-0.0414638 -0.0264714 0)
(-0.0358668 -0.0258823 0)
(-0.0303836 -0.0248247 0)
(-0.0251052 -0.0233069 0)
(-0.020121 -0.0213506 0)
(-0.0155177 -0.0189924 0)
(-0.0113772 -0.016287 0)
(-0.00777544 -0.01331 0)
(-0.00477905 -0.010161 0)
(-0.00244247 -0.00696633 0)
(-0.000844388 -0.00388196 0)
(-0.000121784 -0.00110682 0)
(-0.000151002 0.00170457 0)
(-0.00101992 0.00552528 0)
(-0.00291016 0.00951159 0)
(-0.00563261 0.0134708 0)
(-0.00907372 0.017254 0)
(-0.013156 0.0207426 0)
(-0.0177939 0.0238459 0)
(-0.0228967 0.0264979 0)
(-0.0283718 0.0286539 0)
(-0.0341259 0.0302867 0)
(-0.040065 0.0313841 0)
(-0.0460966 0.0319459 0)
(-0.0521299 0.0319815 0)
(-0.0580773 0.0315086 0)
(-0.0638549 0.0305508 0)
(-0.0693837 0.0291369 0)
(-0.0745899 0.0272995 0)
(-0.0794055 0.0250742 0)
(-0.0837687 0.0224994 0)
(-0.0876244 0.0196152 0)
(-0.0909241 0.0164633 0)
(-0.0936267 0.0130872 0)
(-0.0956983 0.00953148 0)
(-0.0971123 0.00584187 0)
(-0.09785 0.00206541 0)
(-0.0979004 -0.00174982 0)
(-0.0972606 -0.00555472 0)
(-0.0959359 -0.00929928 0)
(-0.0939399 -0.0129328 0)
(-0.0912946 -0.016404 0)
(-0.0880305 -0.0196617 0)
(-0.0841868 -0.0226549 0)
(-0.0798111 -0.0253337 0)
(-0.0749593 -0.0276498 0)
(-0.0696953 -0.0295576 0)
(-0.064091 -0.0310148 0)
(-0.058225 -0.0319839 0)
(-0.0521822 -0.0324336 0)
(-0.0460531 -0.0323398 0)
(-0.0399322 -0.0316875 0)
(-0.0339167 -0.0304724 0)
(-0.0281053 -0.0287029 0)
(-0.0225962 -0.0264023 0)
(-0.0174856 -0.0236106 0)
(-0.0128664 -0.0203875 0)
(-0.00882693 -0.0168146 0)
(-0.00544699 -0.012998 0)
(-0.00279525 -0.00907034 0)
(-0.00097078 -0.00519248 0)
(-0.000141108 -0.0015647 0)
(-0.000169992 0.00225187 0)
(-0.00114373 0.00706647 0)
(-0.00325514 0.011952 0)
(-0.00628474 0.0167182 0)
(-0.0100985 0.021216 0)
(-0.0146046 0.0253256 0)
(-0.0197042 0.0289545 0)
(-0.0252942 0.0320353 0)
(-0.0312718 0.0345224 0)
(-0.0375344 0.0363885 0)
(-0.0439804 0.0376224 0)
(-0.0505103 0.0382257 0)
(-0.0570276 0.0382111 0)
(-0.0634396 0.0375997 0)
(-0.0696581 0.03642 0)
(-0.0756004 0.0347059 0)
(-0.0811893 0.0324958 0)
(-0.0863542 0.0298316 0)
(-0.0910309 0.0267582 0)
(-0.095162 0.0233224 0)
(-0.0986975 0.0195734 0)
(-0.101595 0.0155618 0)
(-0.103818 0.0113396 0)
(-0.105341 0.00696047 0)
(-0.106142 0.00247918 0)
(-0.106211 -0.00204812 0)
(-0.105544 -0.0065641 0)
(-0.104146 -0.0110104 0)
(-0.10203 -0.0153277 0)
(-0.0992191 -0.0194561 0)
(-0.0957435 -0.0233358 0)
(-0.0916434 -0.0269071 0)
(-0.0869677 -0.0301112 0)
(-0.0817739 -0.0328916 0)
(-0.0761285 -0.0351944 0)
(-0.070106 -0.0369697 0)
(-0.0637886 -0.038173 0)
(-0.0572659 -0.0387668 0)
(-0.0506333 -0.0387218 0)
(-0.0439914 -0.0380191 0)
(-0.0374447 -0.0366519 0)
(-0.0310998 -0.0346277 0)
(-0.0250642 -0.0319704 0)
(-0.0194446 -0.0287222 0)
(-0.0143453 -0.0249464 0)
(-0.00986762 -0.0207292 0)
(-0.00610518 -0.0161823 0)
(-0.00314092 -0.0114433 0)
(-0.00109359 -0.00667703 0)
(-0.000159557 -0.00208543 0)
(-0.000188271 0.00286085 0)
(-0.00126404 0.00877755 0)
(-0.00359199 0.0146539 0)
(-0.00692373 0.0203021 0)
(-0.0111056 0.0255737 0)
(-0.0160315 0.0303491 0)
(-0.021589 0.0345356 0)
(-0.0276629 0.0380656 0)
(-0.0341394 0.0408942 0)
(-0.0409064 0.0429955 0)
(-0.0478544 0.0443602 0)
(-0.0548768 0.0449933 0)
(-0.0618714 0.044911 0)
(-0.0687404 0.0441393 0)
(-0.0753915 0.0427118 0)
(-0.0817386 0.0406683 0)
(-0.0877015 0.0380535 0)
(-0.0932073 0.034916 0)
(-0.0981896 0.0313074 0)
(-0.10259 0.027282 0)
(-0.106356 0.0228962 0)
(-0.109444 0.0182081 0)
(-0.111818 0.0132775 0)
(-0.11345 0.00816588 0)
(-0.114318 0.00293599 0)
(-0.114411 -0.00234781 0)
(-0.113723 -0.00761982 0)
(-0.112261 -0.0128131 0)
(-0.110036 -0.0178597 0)
(-0.107071 -0.0226908 0)
(-0.103397 -0.0272374 0)
(-0.0990531 -0.0314308 0)
(-0.0940902 -0.0352033 0)
(-0.0885666 -0.0384891 0)
(-0.0825505 -0.0412257 0)
(-0.0761191 -0.0433549 0)
(-0.0693578 -0.0448243 0)
(-0.0623602 -0.0455893 0)
(-0.055227 -0.0456146 0)
(-0.0480651 -0.0448764 0)
(-0.040986 -0.0433642 0)
(-0.0341051 -0.0410836 0)
(-0.0275396 -0.0380576 0)
(-0.021407 -0.0343297 0)
(-0.0158242 -0.0299654 0)
(-0.0109058 -0.0250546 0)
(-0.00675974 -0.019713 0)
(-0.00348335 -0.014083 0)
(-0.00121456 -0.00833307 0)
(-0.000177527 -0.0026675 0)
(-0.000206124 0.00353001 0)
(-0.00138216 0.0106552 0)
(-0.00392362 0.0176133 0)
(-0.00755419 0.0242184 0)
(-0.012101 0.0303236 0)
(-0.0174439 0.0358099 0)
(-0.0234569 0.040586 0)
(-0.0300122 0.0445858 0)
(-0.0369848 0.047766 0)
(-0.044253 0.0501036 0)
(-0.051699 0.051593 0)
(-0.0592091 0.0522429 0)
(-0.0666752 0.0520748 0)
(-0.0739946 0.0511201 0)
(-0.0810711 0.0494184 0)
(-0.0878153 0.0470161 0)
(-0.0941446 0.0439647 0)
(-0.0999838 0.0403199 0)
(-0.105265 0.0361407 0)
(-0.109928 0.0314887 0)
(-0.113921 0.026428 0)
(-0.117198 0.0210243 0)
(-0.119722 0.0153453 0)
(-0.121464 0.00946032 0)
(-0.122402 0.00344019 0)
(-0.122524 -0.00264249 0)
(-0.121825 -0.0087136 0)
(-0.120307 -0.0146976 0)
(-0.117984 -0.0205176 0)
(-0.114877 -0.0260958 0)
(-0.111017 -0.0313538 0)
(-0.106443 -0.0362136 0)
(-0.101205 -0.0405979 0)
(-0.0953634 -0.0444314 0)
(-0.0889871 -0.0476421 0)
(-0.0821553 -0.0501627 0)
(-0.0749566 -0.0519322 0)
(-0.0674884 -0.0528978 0)
(-0.0598565 -0.0530172 0)
(-0.052174 -0.0522604 0)
(-0.04456 -0.0506121 0)
(-0.0371389 -0.0480744 0)
(-0.030038 -0.0446686 0)
(-0.0233867 -0.0404377 0)
(-0.0173146 -0.0354486 0)
(-0.0119506 -0.0297936 0)
(-0.00741733 -0.0235919 0)
(-0.00382659 -0.0169898 0)
(-0.00133546 -0.01016 0)
(-0.000195377 -0.00331035 0)
(-0.000223796 0.00425853 0)
(-0.00149929 0.0126976 0)
(-0.00425285 0.0208279 0)
(-0.0081807 0.0284649 0)
(-0.013091 0.0354633 0)
(-0.0188495 0.0417061 0)
(-0.0253167 0.0471039 0)
(-0.0323518 0.0515936 0)
(-0.0398184 0.0551352 0)
(-0.0475851 0.0577098 0)
(-0.0555253 0.0593164 0)
(-0.0635185 0.0599696 0)
(-0.0714503 0.0596966 0)
(-0.0792136 0.0585354 0)
(-0.0867082 0.0565327 0)
(-0.0938419 0.0537419 0)
(-0.10053 0.0502222 0)
(-0.106695 0.0460366 0)
(-0.112268 0.041252 0)
(-0.117189 0.0359378 0)
(-0.121404 0.0301656 0)
(-0.124866 0.0240091 0)
(-0.12754 0.0175436 0)
(-0.129394 0.0108465 0)
(-0.130407 0.00399665 0)
(-0.130564 -0.00292521 0)
(-0.129861 -0.00983659 0)
(-0.128299 -0.0166533 0)
(-0.125889 -0.0232896 0)
(-0.122653 -0.0296584 0)
(-0.11862 -0.0356721 0)
(-0.113829 -0.0412426 0)
(-0.10833 -0.0462827 0)
(-0.102183 -0.0507073 0)
(-0.0954576 -0.054434 0)
(-0.0882347 -0.0573856 0)
(-0.0806055 -0.0594914 0)
(-0.072671 -0.0606896 0)
(-0.0645421 -0.0609293 0)
(-0.056338 -0.0601731 0)
(-0.0481858 -0.0583996 0)
(-0.040219 -0.0556058 0)
(-0.0325759 -0.0518099 0)
(-0.0253981 -0.0470533 0)
(-0.0188288 -0.0414026 0)
(-0.0130118 -0.0349518 0)
(-0.00808478 -0.0278231 0)
(-0.00417469 -0.0201665 0)
(-0.00145795 -0.0121594 0)
(-0.000213432 -0.00401434 0)
(-0.0002415 0.00504621 0)
(-0.00161653 0.0149042 0)
(-0.00458232 0.0242969 0)
(-0.00880762 0.0330409 0)
(-0.0140816 0.0409923 0)
(-0.0202559 0.0480369 0)
(-0.0271769 0.0540883 0)
(-0.0346909 0.0590875 0)
(-0.0426499 0.0629995 0)
(-0.0509122 0.0658107 0)
(-0.0593428 0.0675264 0)
(-0.0678137 0.068168 0)
(-0.0762049 0.06777 0)
(-0.0844045 0.0663781 0)
(-0.092309 0.0640468 0)
(-0.0998233 0.0608377 0)
(-0.106861 0.0568179 0)
(-0.113343 0.0520588 0)
(-0.119201 0.046635 0)
(-0.124373 0.0406241 0)
(-0.128805 0.0341055 0)
(-0.132451 0.0271607 0)
(-0.135273 0.019873 0)
(-0.13724 0.0123273 0)
(-0.138332 0.00461058 0)
(-0.138531 -0.00318853 0)
(-0.137832 -0.0109793 0)
(-0.136236 -0.0186689 0)
(-0.133754 -0.0261629 0)
(-0.130403 -0.033365 0)
(-0.126212 -0.0401778 0)
(-0.12122 -0.0465034 0)
(-0.115475 -0.0522442 0)
(-0.109037 -0.0573043 0)
(-0.101975 -0.0615906 0)
(-0.0943715 -0.065015 0)
(-0.08632 -0.0674961 0)
(-0.0779248 -0.0689615 0)
(-0.0693013 -0.0693505 0)
(-0.0605751 -0.0686169 0)
(-0.0518812 -0.0667314 0)
(-0.0433628 -0.0636846 0)
(-0.0351694 -0.0594897 0)
(-0.0274555 -0.0541851 0)
(-0.0203789 -0.0478363 0)
(-0.0140987 -0.0405377 0)
(-0.00876875 -0.0324138 0)
(-0.00453158 -0.0236186 0)
(-0.00158361 -0.0143345 0)
(-0.000231989 -0.00478069 0)
(-0.000259417 0.00589336 0)
(-0.00173486 0.0172758 0)
(-0.00491443 0.0280214 0)
(-0.009439 0.0379473 0)
(-0.0150784 0.0469115 0)
(-0.0216698 0.0548027 0)
(-0.0290453 0.0615391 0)
(-0.0370379 0.0670666 0)
(-0.0454876 0.0713566 0)
(-0.0542424 0.0744028 0)
(-0.0631584 0.076218 0)
(-0.0721006 0.0768318 0)
(-0.0809432 0.0762875 0)
(-0.0895698 0.0746396 0)
(-0.0978739 0.0719516 0)
(-0.105758 0.0682939 0)
(-0.113134 0.0637425 0)
(-0.119924 0.0583774 0)
(-0.126057 0.0522818 0)
(-0.131471 0.0455412 0)
(-0.136113 0.0382432 0)
(-0.139938 0.030477 0)
(-0.142906 0.0223336 0)
(-0.144989 0.0139056 0)
(-0.146162 0.00528736 0)
(-0.146411 -0.00342446 0)
(-0.145726 -0.0121312 0)
(-0.144109 -0.0207319 0)
(-0.141567 -0.0291232 0)
(-0.138117 -0.0371998 0)
(-0.133787 -0.0448546 0)
(-0.128612 -0.0519796 0)
(-0.122638 -0.0584664 0)
(-0.115926 -0.0642078 0)
(-0.108543 -0.0690991 0)
(-0.100573 -0.0730404 0)
(-0.0921105 -0.0759383 0)
(-0.0832623 -0.0777086 0)
(-0.0741484 -0.0782793 0)
(-0.0649007 -0.0775935 0)
(-0.0556622 -0.0756123 0)
(-0.046586 -0.072318 0)
(-0.0378335 -0.0677174 0)
(-0.0295727 -0.0618441 0)
(-0.0219764 -0.0547609 0)
(-0.0152205 -0.0465621 0)
(-0.00947571 -0.0373737 0)
(-0.00490102 -0.0273539 0)
(-0.00171397 -0.0166907 0)
(-0.000251322 -0.00561141 0)
(-0.000277709 0.00680082 0)
(-0.00185517 0.0198141 0)
(-0.00525137 0.0320038 0)
(-0.0100786 0.0431868 0)
(-0.0160866 0.0532231 0)
(-0.0230976 0.0620052 0)
(-0.030929 0.0694566 0)
(-0.0394 0.0755299 0)
(-0.0483384 0.0802041 0)
(-0.0575815 0.0834816 0)
(-0.0669767 0.0853847 0)
(-0.0763817 0.0859529 0)
(-0.0856653 0.0852394 0)
(-0.094707 0.0833089 0)
(-0.103397 0.0802351 0)
(-0.111637 0.0760982 0)
(-0.119338 0.0709838 0)
(-0.126421 0.0649811 0)
(-0.132816 0.0581821 0)
(-0.138462 0.0506807 0)
(-0.143306 0.0425724 0)
(-0.147303 0.0339542 0)
(-0.150415 0.0249246 0)
(-0.152612 0.0155833 0)
(-0.153871 0.00603231 0)
(-0.154175 -0.00362459 0)
(-0.153516 -0.0132811 0)
(-0.15189 -0.0228282 0)
(-0.149305 -0.0321542 0)
(-0.145776 -0.0411449 0)
(-0.141326 -0.0496836 0)
(-0.135988 -0.0576517 0)
(-0.129809 -0.06493 0)
(-0.122843 -0.0713995 0)
(-0.11516 -0.0769432 0)
(-0.10684 -0.081448 0)
(-0.0979807 -0.0848073 0)
(-0.0886904 -0.0869238 0)
(-0.0790932 -0.0877124 0)
(-0.0693268 -0.0871034 0)
(-0.0595423 -0.0850464 0)
(-0.0499028 -0.0815137 0)
(-0.040582 -0.0765033 0)
(-0.0317622 -0.0700425 0)
(-0.0236325 -0.06219 0)
(-0.016386 -0.0530386 0)
(-0.0102118 -0.0427155 0)
(-0.00528657 -0.0313828 0)
(-0.00185042 -0.0192351 0)
(-0.000271685 -0.00650929 0)
(-0.000296521 0.00776983 0)
(-0.00197826 0.0225221 0)
(-0.0055952 0.0362478 0)
(-0.0107297 0.0487632 0)
(-0.0171109 0.0599306 0)
(-0.024545 0.0696468 0)
(-0.0328343 0.0778417 0)
(-0.0417834 0.084476 0)
(-0.0512076 0.0895382 0)
(-0.0609334 0.0930412 0)
(-0.0707992 0.0950183 0)
(-0.0806559 0.0955205 0)
(-0.0903669 0.0946129 0)
(-0.099808 0.0923718 0)
(-0.108867 0.088882 0)
(-0.117445 0.0842349 0)
(-0.125453 0.0785262 0)
(-0.132811 0.0718551 0)
(-0.139451 0.0643225 0)
(-0.145314 0.056031 0)
(-0.150348 0.0470842 0)
(-0.154508 0.0375865 0)
(-0.157759 0.0276434 0)
(-0.160069 0.0173619 0)
(-0.161416 0.00685044 0)
(-0.161783 -0.00378013 0)
(-0.161159 -0.0144164 0)
(-0.15954 -0.0249421 0)
(-0.156931 -0.0352374 0)
(-0.153343 -0.0451794 0)
(-0.148796 -0.054642 0)
(-0.143323 -0.0634964 0)
(-0.136963 -0.0716118 0)
(-0.12977 -0.0788571 0)
(-0.12181 -0.0851019 0)
(-0.113164 -0.0902195 0)
(-0.103927 -0.0940884 0)
(-0.09421 -0.0965963 0)
(-0.0841405 -0.0976432 0)
(-0.0738614 -0.0971447 0)
(-0.0635317 -0.0950367 0)
(-0.0533248 -0.0912787 0)
(-0.0434271 -0.0858582 0)
(-0.0340359 -0.078794 0)
(-0.0253574 -0.0701389 0)
(-0.0176035 -0.059983 0)
(-0.0109829 -0.0484541 0)
(-0.00569168 -0.0357181 0)
(-0.00199434 -0.0219767 0)
(-0.000293323 -0.00747782 0)
(-0.000315991 0.00880205 0)
(-0.00210492 0.0254036 0)
(-0.00594784 0.0407585 0)
(-0.0113958 0.0546819 0)
(-0.0181557 0.0670385 0)
(-0.0260174 0.0777304 0)
(-0.0347665 0.0866951 0)
(-0.0441929 0.0939031 0)
(-0.0540987 0.0993542 0)
(-0.0642995 0.103073 0)
(-0.0746246 0.105107 0)
(-0.0849182 0.105521 0)
(-0.0950385 0.104391 0)
(-0.104859 0.10181 0)
(-0.114265 0.0978724 0)
(-0.123157 0.0926833 0)
(-0.131447 0.0863494 0)
(-0.139058 0.0789798 0)
(-0.145923 0.0706854 0)
(-0.151983 0.0615771 0)
(-0.15719 0.0517665 0)
(-0.161502 0.0413653 0)
(-0.164882 0.0304857 0)
(-0.167302 0.0192411 0)
(-0.168739 0.00774616 0)
(-0.169174 -0.00388211 0)
(-0.168597 -0.0155239 0)
(-0.167002 -0.0270561 0)
(-0.164389 -0.0383515 0)
(-0.160767 -0.049279 0)
(-0.156153 -0.0597033 0)
(-0.150573 -0.0694854 0)
(-0.144064 -0.078483 0)
(-0.136676 -0.0865523 0)
(-0.12847 -0.0935491 0)
(-0.119526 -0.0993312 0)
(-0.109937 -0.103761 0)
(-0.0998151 -0.106711 0)
(-0.0892893 -0.108061 0)
(-0.078508 -0.107712 0)
(-0.0676374 -0.105583 0)
(-0.0568612 -0.101619 0)
(-0.0463791 -0.0957926 0)
(-0.036404 -0.0881127 0)
(-0.0271605 -0.0786244 0)
(-0.0188807 -0.0674133 0)
(-0.0117947 -0.0546069 0)
(-0.00611964 -0.0403745 0)
(-0.00214704 -0.0249258 0)
(-0.000316473 -0.00852117 0)
(-0.000336254 0.00989952 0)
(-0.00223591 0.0284636 0)
(-0.00631122 0.0455423 0)
(-0.01208 0.0609493 0)
(-0.0192254 0.0745523 0)
(-0.0275194 0.0862595 0)
(-0.0367304 0.0960175 0)
(-0.0466324 0.103808 0)
(-0.0570138 0.109645 0)
(-0.0676789 0.113567 0)
(-0.0784482 0.115637 0)
(-0.0891591 0.115934 0)
(-0.0996657 0.114553 0)
(-0.109838 0.111598 0)
(-0.119563 0.107181 0)
(-0.12874 0.101417 0)
(-0.137283 0.094427 0)
(-0.145117 0.0863303 0)
(-0.152178 0.0772476 0)
(-0.158411 0.0672986 0)
(-0.163771 0.0566027 0)
(-0.168216 0.0452784 0)
(-0.171715 0.0334441 0)
(-0.174238 0.0212189 0)
(-0.175764 0.00872288 0)
(-0.176275 -0.00392154 0)
(-0.175756 -0.0165891 0)
(-0.174202 -0.0291505 0)
(-0.171609 -0.0414722 0)
(-0.167981 -0.0534153 0)
(-0.163332 -0.064836 0)
(-0.157681 -0.0755851 0)
(-0.151062 -0.085509 0)
(-0.143517 -0.0944507 0)
(-0.135104 -0.102251 0)
(-0.125898 -0.108753 0)
(-0.11599 -0.1138 0)
(-0.105491 -0.117245 0)
(-0.094532 -0.118951 0)
(-0.0832645 -0.118797 0)
(-0.0718619 -0.116684 0)
(-0.0605182 -0.112538 0)
(-0.0494462 -0.106316 0)
(-0.0388757 -0.0980131 0)
(-0.0290505 -0.0876645 0)
(-0.0202251 -0.0753491 0)
(-0.0126525 -0.0611932 0)
(-0.00657371 -0.0453692 0)
(-0.00230983 -0.0280948 0)
(-0.000341373 -0.00964422 0)
(-0.000357453 0.0110647 0)
(-0.00237203 0.0317077 0)
(-0.00668731 0.0506065 0)
(-0.0127855 0.067573 0)
(-0.0203242 0.0824781 0)
(-0.0290559 0.0952375 0)
(-0.0387304 0.105808 0)
(-0.0491048 0.114187 0)
(-0.0599532 0.120401 0)
(-0.0710683 0.124508 0)
(-0.0822619 0.126588 0)
(-0.0933651 0.126738 0)
(-0.104228 0.125071 0)
(-0.11472 0.121707 0)
(-0.124727 0.116774 0)
(-0.134151 0.110403 0)
(-0.142909 0.102726 0)
(-0.150929 0.0938747 0)
(-0.158152 0.0839798 0)
(-0.164527 0.0731697 0)
(-0.170011 0.0615712 0)
(-0.174568 0.0493093 0)
(-0.178169 0.0365078 0)
(-0.180786 0.0232907 0)
(-0.182399 0.00978266 0)
(-0.182989 -0.00388971 0)
(-0.182542 -0.0175966 0)
(-0.181048 -0.0312038 0)
(-0.1785 -0.044572 0)
(-0.1749 -0.0575558 0)
(-0.170253 -0.0700031 0)
(-0.164574 -0.0817554 0)
(-0.157889 -0.0926477 0)
(-0.150234 -0.10251 0)
(-0.141661 -0.111167 0)
(-0.132239 -0.118445 0)
(-0.122054 -0.124168 0)
(-0.111215 -0.128169 0)
(-0.0998533 -0.130289 0)
(-0.0881228 -0.130383 0)
(-0.0762033 -0.12833 0)
(-0.0642983 -0.124035 0)
(-0.0526343 -0.117436 0)
(-0.0414585 -0.108509 0)
(-0.0310354 -0.0972775 0)
(-0.0216436 -0.0838118 0)
(-0.0135618 -0.0682346 0)
(-0.00705712 -0.0507211 0)
(-0.00248405 -0.0314972 0)
(-0.000368269 -0.0108525 0)
(-0.000379748 0.0123005 0)
(-0.00251417 0.0351428 0)
(-0.00707832 0.0559599 0)
(-0.0135159 0.0745617 0)
(-0.0214566 0.0908229 0)
(-0.0306316 0.104668 0)
(-0.0407704 0.116067 0)
(-0.0516121 0.125031 0)
(-0.0629157 0.131609 0)
(-0.0744621 0.135876 0)
(-0.0860543 0.137934 0)
(-0.0975177 0.137901 0)
(-0.1087 0.135908 0)
(-0.119469 0.132097 0)
(-0.129713 0.126612 0)
(-0.139338 0.119599 0)
(-0.148263 0.111205 0)
(-0.156424 0.101573 0)
(-0.163765 0.090845 0)
(-0.170242 0.0791575 0)
(-0.175817 0.0666444 0)
(-0.180458 0.0534363 0)
(-0.184139 0.039662 0)
(-0.186837 0.0254491 0)
(-0.188531 0.0109257 0)
(-0.189204 -0.00377846 0)
(-0.18884 -0.0185303 0)
(-0.187427 -0.0331921 0)
(-0.184954 -0.0476199 0)
(-0.181417 -0.0616628 0)
(-0.176816 -0.0751618 0)
(-0.171158 -0.0879492 0)
(-0.16446 -0.0998492 0)
(-0.156751 -0.110678 0)
(-0.148075 -0.120246 0)
(-0.138493 -0.12836 0)
(-0.128084 -0.134823 0)
(-0.116953 -0.139446 0)
(-0.105229 -0.142044 0)
(-0.0930681 -0.142448 0)
(-0.0806543 -0.140509 0)
(-0.0682006 -0.136107 0)
(-0.0559469 -0.129156 0)
(-0.0441585 -0.119613 0)
(-0.0331223 -0.107482 0)
(-0.0231429 -0.0928234 0)
(-0.0145277 -0.0757542 0)
(-0.00757316 -0.0564511 0)
(-0.00267106 -0.0351485 0)
(-0.00039742 -0.0121523 0)
(-0.000403326 0.0136101 0)
(-0.00266337 0.0387768 0)
(-0.00748677 0.0616127 0)
(-0.0142752 0.0819254 0)
(-0.0226278 0.0995941 0)
(-0.0322518 0.114554 0)
(-0.0428547 0.126789 0)
(-0.054156 0.136332 0)
(-0.0658989 0.143251 0)
(-0.077852 0.147646 0)
(-0.08981 0.149643 0)
(-0.101593 0.149384 0)
(-0.113048 0.147022 0)
(-0.124042 0.14272 0)
(-0.134468 0.136643 0)
(-0.144236 0.128953 0)
(-0.153272 0.119812 0)
(-0.161516 0.109376 0)
(-0.168923 0.0977976 0)
(-0.175453 0.0852211 0)
(-0.181076 0.0717872 0)
(-0.185766 0.0576316 0)
(-0.1895 0.0428866 0)
(-0.19226 0.0276827 0)
(-0.194027 0.0121498 0)
(-0.194784 -0.0035806 0)
(-0.194515 -0.0193737 0)
(-0.193204 -0.0350896 0)
(-0.190838 -0.0505815 0)
(-0.187406 -0.0656941 0)
(-0.1829 -0.0802624 0)
(-0.177319 -0.0941112 0)
(-0.170671 -0.107054 0)