/*--------------------------------*- C++ -*----------------------------------*\
| =========                 |                                                 |
| \\      /  F ield         | OpenFOAM: The Open Source CFD Toolbox           |
|  \\    /   O peration     | Version:  v2012                                 |
|   \\  /    A nd           | Website:  www.openfoam.com                      |
|    \\/     M anipulation  |                                                 |
\*---------------------------------------------------------------------------*/
FoamFile
{
    version     2.0;
    format      ascii;
    class       volVectorField;
    location    "0.05";
    object      U;
}
// * * * * * * * * * * * * * * * * * * * * * * * * * * * * * * * * * * * * * //

dimensions      [0 1 -1 0 0 0 0];


internalField   nonuniform List<vector> 
1250
(
(2.90335e-05 -2.92309e-05 0)
(8.66354e-05 -3.53868e-05 0)
(0.000117091 -1.70546e-05 0)
(8.45149e-05 8.98151e-06 0)
(-2.30654e-05 3.56435e-05 0)
(-0.000203693 6.01093e-05 0)
(-0.000450482 8.12896e-05 0)
(-0.000754481 9.88664e-05 0)
(-0.00110583 0.000112848 0)
(-0.00149445 0.000123379 0)
(-0.00191043 0.000130655 0)
(-0.00234421 0.000134892 0)
(-0.0027867 0.000136312 0)
(-0.00322939 0.000135142 0)
(-0.00366435 0.000131601 0)
(-0.00408427 0.000125899 0)
(-0.00448245 0.000118242 0)
(-0.00485283 0.000108832 0)
(-0.00518999 9.7867e-05 0)
(-0.0054891 8.55391e-05 0)
(-0.00574598 7.20354e-05 0)
(-0.00595705 5.75404e-05 0)
(-0.00611936 4.22337e-05 0)
(-0.00623055 2.62909e-05 0)
(-0.0062889 9.894e-06 0)
(3.54911e-05 -8.66618e-05 0)
(7.80543e-05 -7.73725e-05 0)
(2.65394e-05 2.11334e-05 0)
(-0.000174543 0.000153558 0)
(-0.000547602 0.000292885 0)
(-0.00109269 0.000425256 0)
(-0.00179799 0.000543557 0)
(-0.00264498 0.000644395 0)
(-0.00361138 0.000726385 0)
(-0.00467314 0.000789235 0)
(-0.00580562 0.000833286 0)
(-0.00698446 0.000859247 0)
(-0.00818607 0.000868054 0)
(-0.00938793 0.000860774 0)
(-0.0105689 0.000838555 0)
(-0.0117091 0.000802589 0)
(-0.0127906 0.000754085 0)
(-0.0137968 0.000694268 0)
(-0.0147127 0.000624362 0)
(-0.0155252 0.000545589 0)
(-0.0162227 0.000459169 0)
(-0.0167956 0.000366319 0)
(-0.0172355 0.000268258 0)
(-0.0175363 0.000166202 0)
(-0.0176933 6.14335e-05 0)
(1.84504e-05 -0.000118761 0)
(-1.67819e-05 -2.68837e-05 0)
(-0.000227243 0.000232785 0)
(-0.000660239 0.00056415 0)
(-0.00133688 0.000914083 0)
(-0.00225716 0.00125096 0)
(-0.00340602 0.00155623 0)
(-0.00475861 0.00181961 0)
(-0.00628418 0.00203588 0)
(-0.00794862 0.00220289 0)
(-0.00971633 0.00232051 0)
(-0.0115515 0.00238983 0)
(-0.0134189 0.0024128 0)
(-0.0152847 0.00239189 0)
(-0.0171167 0.00232994 0)
(-0.018885 0.00223 0)
(-0.0205615 0.00209528 0)
(-0.0221209 0.00192906 0)
(-0.0235401 0.00173469 0)
(-0.0247988 0.00151555 0)
(-0.025879 0.00127505 0)
(-0.0267657 0.0010166 0)
(-0.0274462 0.000743666 0)
(-0.0279109 0.000459746 0)
(-0.0281527 0.000168471 0)
(-6.12852e-06 -9.01053e-05 0)
(-0.000145529 0.000170223 0)
(-0.0005544 0.000664542 0)
(-0.00125612 0.00126385 0)
(-0.00226169 0.0018907 0)
(-0.00356734 0.0024951 0)
(-0.00515358 0.00304545 0)
(-0.00698988 0.00352273 0)
(-0.00903871 0.00391631 0)
(-0.0112581 0.00422106 0)
(-0.013604 0.00443561 0)
(-0.0160313 0.00456111 0)
(-0.0184957 0.00460048 0)
(-0.0209541 0.00455779 0)
(-0.0233652 0.00443797 0)
(-0.0256904 0.00424648 0)
(-0.0278936 0.00398916 0)
(-0.0299419 0.00367209 0)
(-0.0318053 0.00330153 0)
(-0.0334572 0.00288385 0)
(-0.0348744 0.00242551 0)
(-0.0360372 0.00193307 0)
(-0.0369293 0.00141316 0)
(-0.0375379 0.000872533 0)
(-0.0378541 0.000318136 0)
(-3.16494e-05 1.13841e-05 0)
(-0.000284073 0.000539028 0)
(-0.000909512 0.00134277 0)
(-0.00189918 0.00227161 0)
(-0.00324831 0.00322873 0)
(-0.00494597 0.00414796 0)
(-0.00696636 0.00498515 0)
(-0.00927275 0.00571223 0)
(-0.0118212 0.00631249 0)
(-0.014563 0.00677716 0)
(-0.0174468 0.0071031 0)
(-0.0204203 0.00729121 0)
(-0.0234312 0.00734523 0)
(-0.0264289 0.00727093 0)
(-0.0293648 0.00707553 0)
(-0.0321928 0.00676725 0)
(-0.0348702 0.00635504 0)
(-0.0373575 0.00584832 0)
(-0.0396191 0.00525688 0)
(-0.0416231 0.00459073 0)
(-0.0433418 0.00386012 0)
(-0.0447514 0.00307544 0)
(-0.0458325 0.00224729 0)
(-0.0465698 0.00138645 0)
(-0.0469528 0.000504022 0)
(-5.58391e-05 0.000186116 0)
(-0.000421599 0.0010864 0)
(-0.00126881 0.00227884 0)
(-0.00255384 0.00359958 0)
(-0.00425303 0.00493765 0)
(-0.00634568 0.00621377 0)
(-0.00879787 0.00737279 0)
(-0.0115656 0.00837821 0)
(-0.0145982 0.00920726 0)
(-0.0178406 0.00984739 0)
(-0.0212349 0.0102935 0)
(-0.0247221 0.0105461 0)
(-0.0282435 0.0106098 0)
(-0.0317421 0.0104919 0)
(-0.0351626 0.0102024 0)
(-0.0384533 0.00975233 0)
(-0.0415653 0.00915426 0)
(-0.0444542 0.00842138 0)
(-0.0470791 0.00756749 0)
(-0.0494039 0.00660685 0)
(-0.051397 0.00555404 0)
(-0.0530312 0.00442396 0)
(-0.0542845 0.0032318 0)
(-0.0551395 0.00199306 0)
(-0.0555841 0.000723673 0)
(-7.81112e-05 0.000430961 0)
(-0.000553807 0.00181104 0)
(-0.00162106 0.00347448 0)
(-0.00320175 0.00525107 0)
(-0.00525214 0.00702032 0)
(-0.00774005 0.008693 0)
(-0.0106219 0.010205 0)
(-0.0138453 0.0115125 0)
(-0.0173524 0.0125875 0)
(-0.0210813 0.0134137 0)
(-0.0249678 0.0139844 0)
(-0.0289469 0.0142997 0)
(-0.0329541 0.014365 0)
(-0.0369263 0.0141898 0)
(-0.0408031 0.0137865 0)
(-0.0445274 0.0131697 0)
(-0.0480455 0.0123557 0)
(-0.0513082 0.0113618 0)
(-0.0542709 0.0102064 0)
(-0.0568934 0.00890841 0)
(-0.0591409 0.00748724 0)
(-0.0609836 0.00596283 0)
(-0.062397 0.00435551 0)
(-0.0633619 0.00268606 0)
(-0.063865 0.000975809 0)
(-9.85657e-05 0.000742101 0)
(-0.000679716 0.00270832 0)
(-0.00196229 0.00492661 0)
(-0.00383548 0.00722459 0)
(-0.00623536 0.00947581 0)
(-0.00911728 0.011584 0)
(-0.0124269 0.0134783 0)
(-0.0161026 0.015109 0)
(-0.0200784 0.0164436 0)
(-0.0242853 0.0174632 0)
(-0.0286528 0.0181595 0)
(-0.0331099 0.0185327 0)
(-0.0375864 0.0185895 0)
(-0.0420141 0.0183413 0)
(-0.0463278 0.0178038 0)
(-0.0504655 0.016995 0)
(-0.0543695 0.0159354 0)
(-0.0579867 0.014647 0)
(-0.0612688 0.0131529 0)
(-0.0641727 0.0114771 0)
(-0.0666607 0.00964441 0)
(-0.0687005 0.00768014 0)
(-0.0702658 0.00561024 0)
(-0.0713358 0.00346122 0)
(-0.071896 0.00126027 0)
(-0.00011754 0.00111595 0)
(-0.000799912 0.00377276 0)
(-0.00229253 0.00663044 0)
(-0.00445399 0.00951675 0)
(-0.00720067 0.012302 0)
(-0.010475 0.0148851 0)
(-0.0142112 0.0171905 0)
(-0.0183375 0.0191642 0)
(-0.0227793 0.0207705 0)
(-0.02746 0.0219885 0)
(-0.0323023 0.0228093 0)
(-0.0372293 0.0232336 0)
(-0.0421653 0.0232696 0)
(-0.0470372 0.0229315 0)
(-0.0517751 0.0222382 0)
(-0.0563131 0.0212118 0)
(-0.0605896 0.0198772 0)
(-0.0645481 0.0182614 0)
(-0.0681373 0.0163927 0)
(-0.0713115 0.0143004 0)
(-0.0740304 0.0120152 0)
(-0.0762601 0.00956807 0)
(-0.0779722 0.00699097 0)
(-0.0791449 0.0043165 0)
(-0.0797624 0.00157807 0)
(-0.000135424 0.0015496 0)
(-0.000915639 0.00499942 0)
(-0.00261379 0.00858126 0)
(-0.00505978 0.0121241 0)
(-0.00815097 0.0154967 0)
(-0.0118168 0.0185952 0)
(-0.0159794 0.0213409 0)
(-0.0205564 0.0236771 0)
(-0.0254639 0.0255663 0)
(-0.0306172 0.0269865 0)
(-0.0359321 0.0279291 0)
(-0.0413253 0.028396 0)
(-0.0467158 0.0283977 0)
(-0.0520256 0.0279514 0)
(-0.0571804 0.0270799 0)
(-0.0621106 0.0258097 0)
(-0.0667512 0.0241707 0)
(-0.0710427 0.022195 0)
(-0.0749312 0.0199165 0)
(-0.0783686 0.0173704 0)
(-0.0813128 0.0145932 0)
(-0.083728 0.0116221 0)
(-0.0855845 0.00849521 0)
(-0.0868592 0.00525162 0)
(-0.0875355 0.00193121 0)
(-0.000152596 0.00204098 0)
(-0.00102837 0.00638459 0)
(-0.00292902 0.0107755 0)
(-0.0056572 0.0150442 0)
(-0.00909187 0.0190588 0)
(-0.0131494 0.0227143 0)
(-0.0177398 0.0259302 0)
(-0.0227693 0.0286487 0)
(-0.0281443 0.0308315 0)
(-0.0337718 0.032457 0)
(-0.0395598 0.0335177 0)
(-0.0454188 0.0340175 0)
(-0.0512622 0.0339701 0)
(-0.0570072 0.0333964 0)
(-0.0625753 0.0323234 0)
(-0.0678933 0.0307828 0)
(-0.0728932 0.0288096 0)
(-0.0775129 0.0264416 0)
(-0.081696 0.0237187 0)
(-0.0853926 0.0206822 0)
(-0.0885589 0.0173747 0)
(-0.0911577 0.0138399 0)
(-0.093158 0.0101224 0)
(-0.0945357 0.00626771 0)
(-0.0952732 0.00232255 0)
(-0.000169388 0.00258885 0)
(-0.00113961 0.00792613 0)
(-0.00324149 0.0132113 0)
(-0.00625139 0.0182761 0)
(-0.0100303 0.0229888 0)
(-0.0144816 0.027244 0)
(-0.0195026 0.0309609 0)
(-0.0249882 0.0340817 0)
(-0.0308344 0.0365689 0)
(-0.0369392 0.0384022 0)
(-0.0432031 0.0395764 0)
(-0.0495297 0.0400986 0)
(-0.0558268 0.0399862 0)
(-0.0620067 0.0392648 0)
(-0.067987 0.0379663 0)
(-0.073691 0.0361279 0)
(-0.0790478 0.0337905 0)
(-0.083993 0.0309979 0)
(-0.0884683 0.0277964 0)
(-0.092422 0.0242335 0)
(-0.0958091 0.0203584 0)
(-0.0985909 0.0162212 0)
(-0.100736 0.0118733 0)
(-0.102218 0.007367 0)
(-0.10302 0.00275571 0)
(-0.000186094 0.00319278 0)
(-0.00125076 0.00962354 0)
(-0.00355448 0.0158888 0)
(-0.0068477 0.021821 0)
(-0.0109736 0.0272889 0)
(-0.0158225 0.0321876 0)
(-0.0212789 0.036437 0)
(-0.0272256 0.0399806 0)
(-0.0335482 0.0427827 0)
(-0.0401352 0.0448259 0)
(-0.046879 0.0461084 0)
(-0.0536765 0.0466414 0)
(-0.0604294 0.0464473 0)
(-0.0670454 0.0455568 0)
(-0.073438 0.0440079 0)
(-0.0795273 0.0418438 0)
(-0.0852399 0.0391117 0)
(-0.0905092 0.0358622 0)
(-0.0952752 0.0321479 0)
(-0.099485 0.0280232 0)
(-0.103092 0.0235438 0)
(-0.106058 0.0187667 0)
(-0.108348 0.0137499 0)
(-0.109939 0.00855248 0)
(-0.110809 0.0032349 0)
(-0.00020297 0.00385305 0)
(-0.00136313 0.0114779 0)
(-0.00387109 0.0188101 0)
(-0.00745132 0.0256821 0)
(-0.0119291 0.0319635 0)
(-0.0171812 0.0375503 0)
(-0.0230794 0.0423642 0)
(-0.0294938 0.0463511 0)
(-0.0362991 0.0494786 0)
(-0.0433741 0.0517332 0)
(-0.0506028 0.0531178 0)
(-0.0578749 0.0536492 0)
(-0.0650863 0.0533553 0)
(-0.0721399 0.0522736 0)
(-0.0789453 0.0504484 0)
(-0.0854195 0.0479299 0)
(-0.0914868 0.0447724 0)
(-0.0970788 0.0410334 0)
(-0.102134 0.0367724 0)
(-0.106599 0.0320508 0)
(-0.110426 0.0269312 0)
(-0.113576 0.0214774 0)
(-0.116014 0.0157543 0)
(-0.117715 0.00982766 0)
(-0.118658 0.00376485 0)
(-0.000220237 0.0045706 0)
(-0.00147789 0.0134917 0)
(-0.0041942 0.0219791 0)
(-0.00806709 0.0298648 0)
(-0.0129035 0.0370188 0)
(-0.0185665 0.043339 0)
(-0.0249142 0.0487497 0)
(-0.0318042 0.0532004 0)
(-0.0390993 0.0566631 0)
(-0.0466685 0.0591297 0)
(-0.0543872 0.0606093 0)
(-0.0621376 0.0611251 0)
(-0.0698099 0.0607124 0)
(-0.0773019 0.0594159 0)
(-0.0845198 0.0572877 0)
(-0.0913776 0.0543854 0)
(-0.0977978 0.0507712 0)
(-0.10371 0.0465098 0)
(-0.109053 0.0416684 0)
(-0.113771 0.0363155 0)
(-0.117817 0.0305206 0)
(-0.121151 0.0243546 0)
(-0.123738 0.0178889 0)
(-0.125552 0.0111962 0)
(-0.126572 0.0043506 0)
(-0.000238084 0.00534692 0)
(-0.00159607 0.0156688 0)
(-0.0045264 0.0254016 0)
(-0.00869945 0.0343761 0)
(-0.0139031 0.042463 0)
(-0.0199862 0.0495623 0)
(-0.0267926 0.055602 0)
(-0.0341666 0.0605363 0)
(-0.0419592 0.0643431 0)
(-0.0500288 0.0670212 0)
(-0.0582419 0.068587 0)
(-0.0664735 0.069072 0)
(-0.0746075 0.0685198 0)
(-0.0825374 0.0669836 0)
(-0.0901657 0.0645243 0)
(-0.0974041 0.061208 0)
(-0.104173 0.0571052 0)
(-0.110402 0.0522887 0)
(-0.116028 0.0468335 0)
(-0.120996 0.0408153 0)
(-0.125259 0.0343112 0)
(-0.128776 0.0273985 0)
(-0.131512 0.0201555 0)
(-0.133442 0.0126616 0)
(-0.134543 0.00499736 0)
(-0.000256678 0.00618406 0)
(-0.00171861 0.0180144 0)
(-0.00487002 0.029085 0)
(-0.00935239 0.0392249 0)
(-0.0149335 0.0483057 0)
(-0.0214472 0.05623 0)
(-0.0287224 0.0629303 0)
(-0.0365895 0.0683671 0)
(-0.044887 0.0725255 0)
(-0.0534625 0.0754126 0)
(-0.0621733 0.0770541 0)
(-0.070887 0.0774909 0)
(-0.0794817 0.0767765 0)
(-0.0878463 0.0749742 0)
(-0.0958802 0.0721544 0)
(-0.103493 0.068393 0)
(-0.110604 0.0637692 0)
(-0.117142 0.0583648 0)
(-0.123045 0.0522627 0)
(-0.128257 0.0455464 0)
(-0.132731 0.0383001 0)
(-0.136428 0.0306081 0)
(-0.139313 0.0225552 0)
(-0.141359 0.014227 0)
(-0.142546 0.0057103 0)
(-0.000276169 0.00708447 0)
(-0.00184636 0.0205348 0)
(-0.00522718 0.0330382 0)
(-0.0100295 0.0444218 0)
(-0.0159996 0.0545579 0)
(-0.0229555 0.0633528 0)
(-0.0307102 0.0707445 0)
(-0.0390794 0.076701 0)
(-0.0478885 0.0812163 0)
(-0.056974 0.0843077 0)
(-0.0661839 0.0860117 0)
(-0.075378 0.0863805 0)
(-0.084429 0.0854792 0)
(-0.0932215 0.0833822 0)
(-0.101652 0.080171 0)
(-0.109629 0.0759321 0)
(-0.117072 0.0707546 0)
(-0.123908 0.0647294 0)
(-0.130076 0.057948 0)
(-0.135522 0.0505019 0)
(-0.140201 0.0424824 0)
(-0.144072 0.0339804 0)
(-0.147102 0.0250872 0)
(-0.149265 0.0158943 0)
(-0.150539 0.00649433 0)
(-0.000296696 0.00805105 0)
(-0.00198007 0.023237 0)
(-0.00559979 0.0372713 0)
(-0.0107339 0.0499783 0)
(-0.0171059 0.0612318 0)
(-0.0245163 0.0709422 0)
(-0.0327614 0.0790545 0)
(-0.0416411 0.0855455 0)
(-0.0509673 0.0904203 0)
(-0.0605648 0.0937081 0)
(-0.0702719 0.0954582 0)
(-0.0799413 0.0957361 0)
(-0.0894399 0.0946201 0)
(-0.0986489 0.0921975 0)
(-0.107463 0.0885623 0)
(-0.115789 0.0838124 0)
(-0.123546 0.0780478 0)
(-0.130664 0.0713693 0)
(-0.137082 0.0638772 0)
(-0.142748 0.0556711 0)
(-0.147618 0.0468494 0)
(-0.151655 0.0375097 0)
(-0.154825 0.027749 0)
(-0.157102 0.0176643 0)
(-0.158466 0.00735378 0)
(-0.000318391 0.00908708 0)
(-0.00212049 0.0261292 0)
(-0.00598969 0.0417955 0)
(-0.0114688 0.0559075 0)
(-0.0182563 0.0683404 0)
(-0.026134 0.0790101 0)
(-0.03488 0.0878697 0)
(-0.0442777 0.094907 0)
(-0.0541244 0.10014 0)
(-0.0642327 0.103612 0)
(-0.0744314 0.105388 0)
(-0.084566 0.105549 0)
(-0.0944982 0.104187 0)
(-0.104106 0.101405 0)
(-0.113283 0.0973108 0)
(-0.121935 0.0920151 0)
(-0.129984 0.0856297 0)
(-0.137361 0.0782656 0)
(-0.144008 0.0700327 0)
(-0.149875 0.0610385 0)
(-0.154919 0.0513886 0)
(-0.159107 0.0411866 0)
(-0.162407 0.0305351 0)
(-0.164795 0.0195361 0)
(-0.166249 0.00829207 0)
(-0.000341389 0.0101962 0)
(-0.00226836 0.0292204 0)
(-0.00639867 0.0466233 0)
(-0.0122369 0.0622231 0)
(-0.0194544 0.0758973 0)
(-0.0278124 0.087568 0)
(-0.0370693 0.0971985 0)
(-0.0469905 0.10479 0)
(-0.0573581 0.110375 0)
(-0.0679722 0.114015 0)
(-0.0786519 0.115792 0)
(-0.0892355 0.115803 0)
(-0.0995804 0.11416 0)
(-0.109562 0.110982 0)
(-0.119074 0.106392 0)
(-0.128023 0.100514 0)
(-0.136333 0.0934737 0)
(-0.143938 0.0853927 0)
(-0.150784 0.0763904 0)
(-0.156824 0.0665827 0)
(-0.162021 0.0560819 0)
(-0.166341 0.0449975 0)
(-0.169758 0.0334368 0)
(-0.172247 0.021506 0)
(-0.173789 0.00931133 0)
(-0.000365834 0.0113824 0)
(-0.00242445 0.0325206 0)
(-0.0068286 0.0517682 0)
(-0.0130412 0.0689399 0)
(-0.0207039 0.0839162 0)
(-0.0295549 0.0966271 0)
(-0.0393314 0.107048 0)
(-0.0497793 0.115196 0)
(-0.0606646 0.121122 0)
(-0.0717743 0.124906 0)
(-0.082918 0.126652 0)
(-0.0939272 0.126477 0)
(-0.104656 0.124513 0)
(-0.114978 0.120898 0)
(-0.124786 0.115772 0)
(-0.133993 0.109275 0)
(-0.142524 0.101545 0)
(-0.150318 0.0927164 0)
(-0.157325 0.0829186 0)
(-0.163504 0.0722752 0)
(-0.168821 0.0609053 0)
(-0.173249 0.0489234 0)
(-0.176763 0.036441 0)
(-0.179343 0.0235675 0)
(-0.180968 0.0104119 0)
(-0.000391892 0.0126502 0)
(-0.00258967 0.0360406 0)
(-0.00728158 0.0572446 0)
(-0.013885 0.0760735 0)
(-0.0220084 0.0924113 0)
(-0.031365 0.106198 0)
(-0.041668 0.117423 0)
(-0.0526426 0.126123 0)
(-0.0640374 0.132371 0)
(-0.0756264 0.136269 0)
(-0.0872092 0.137945 0)
(-0.0986116 0.137541 0)
(-0.109684 0.13521 0)
(-0.120302 0.131113 0)
(-0.13036 0.125407 0)
(-0.139773 0.118251 0)
(-0.148473 0.109798 0)
(-0.156405 0.100193 0)
(-0.163525 0.0895764 0)
(-0.169799 0.0780794 0)
(-0.175199 0.0658274 0)
(-0.179702 0.0529393 0)
(-0.183289 0.0395299 0)
(-0.185941 0.0257107 0)
(-0.187642 0.011592 0)
(-0.000419764 0.0140046 0)
(-0.00276506 0.0397923 0)
(-0.00776009 0.0630685 0)
(-0.0147721 0.0836403 0)
(-0.0233725 0.101397 0)
(-0.0332462 0.116289 0)
(-0.0440804 0.128326 0)
(-0.0555776 0.137566 0)
(-0.067468 0.144106 0)
(-0.0795119 0.148078 0)
(-0.0914997 0.149637 0)
(-0.103252 0.148952 0)
(-0.114618 0.146203 0)
(-0.125474 0.141573 0)
(-0.13572 0.135243 0)
(-0.145276 0.127388 0)
(-0.154081 0.118176 0)
(-0.162088 0.107768 0)
(-0.169262 0.0963127 0)
(-0.175577 0.0839492 0)
(-0.181011 0.0708084 0)
(-0.185549 0.057013 0)
(-0.189176 0.0426797 0)
(-0.191879 0.0279208 0)
(-0.193644 0.0128469 0)
(-0.000449703 0.015451 0)
(-0.00295195 0.0437891 0)
(-0.00826721 0.0692571 0)
(-0.0157069 0.0916576 0)
(-0.0248011 0.110886 0)
(-0.0352028 0.126909 0)
(-0.0465701 0.139755 0)
(-0.0585806 0.149511 0)
(-0.0709453 0.156305 0)
(-0.0834103 0.160301 0)
(-0.0957576 0.161685 0)
(-0.107804 0.160659 0)
(-0.119398 0.157432 0)
(-0.130421 0.152214 0)
(-0.140778 0.145209 0)
(-0.150398 0.136612 0)
(-0.15923 0.12661 0)
(-0.167236 0.115374 0)
(-0.174392 0.103065 0)
(-0.18068 0.0898277 0)
(-0.186089 0.0757992 0)
(-0.190612 0.0611042 0)
(-0.19424 0.04586 0)
(-0.196966 0.0301785 0)
(-0.198778 0.0141684 0)
(-0.000482037 0.0169958 0)
(-0.00315203 0.0480461 0)
(-0.00880685 0.0758296 0)
(-0.0166955 0.100144 0)
(-0.0263011 0.120893 0)
(-0.0372403 0.138061 0)
(-0.0491388 0.151705 0)
(-0.0616471 0.161941 0)
(-0.0744556 0.168936 0)
(-0.0872967 0.172891 0)
(-0.0999445 0.17403 0)
(-0.112213 0.172593 0)
(-0.123955 0.168821 0)
(-0.135056 0.162953 0)
(-0.145431 0.15522 0)
(-0.15502 0.145839 0)
(-0.163783 0.135014 0)
(-0.171696 0.12293 0)
(-0.178746 0.109756 0)
(-0.184929 0.0956465 0)
(-0.190243 0.0807402 0)
(-0.194691 0.0651635 0)
(-0.198272 0.0490331 0)
(-0.200984 0.0324583 0)
(-0.202822 0.0155444 0)
(-0.000517194 0.0186464 0)
(-0.00336753 0.0525804 0)
(-0.00938413 0.0828074 0)
(-0.0177455 0.10912 0)
(-0.0278809 0.131432 0)
(-0.0393656 0.149749 0)
(-0.0517889 0.164163 0)
(-0.0647717 0.174828 0)
(-0.0779827 0.181955 0)
(-0.0911409 0.185789 0)
(-0.104014 0.186601 0)
(-0.116416 0.184669 0)
(-0.128205 0.180274 0)
(-0.139276 0.173689 0)
(-0.149556 0.165172 0)
(-0.158999 0.154964 0)
(-0.167581 0.143286 0)
(-0.175292 0.130337 0)
(-0.182135 0.116297 0)
(-0.188118 0.101324 0)
(-0.193254 0.0855604 0)
(-0.197555 0.069132 0)
(-0.201032 0.052153 0)
(-0.203688 0.0347285 0)
(-0.205524 0.0169582 0)
(-0.000555744 0.0204113 0)
(-0.00360137 0.0574121 0)
(-0.0100057 0.0902151 0)
(-0.0188668 0.118607 0)
(-0.0295516 0.142514 0)
(-0.041588 0.161973 0)
(-0.054524 0.177111 0)
(-0.0679481 0.188135 0)
(-0.0815069 0.195305 0)
(-0.0949063 0.198922 0)
(-0.10791 0.199305 0)
(-0.120336 0.196784 0)
(-0.132049 0.19168 0)
(-0.14296 0.184303 0)
(-0.15301 0.174942 0)
(-0.162173 0.163863 0)
(-0.17044 0.151306 0)
(-0.177823 0.137483 0)
(-0.184339 0.122581 0)
(-0.190015 0.106765 0)
(-0.194876 0.0901768 0)
(-0.198949 0.0729402 0)
(-0.202253 0.0551652 0)
(-0.204802 0.0369504 0)
(-0.206603 0.0183877 0)
(-0.000598451 0.0223009 0)
(-0.00385743 0.062565 0)
(-0.0106805 0.0980814 0)
(-0.0200724 0.12863 0)
(-0.0313279 0.154154 0)
(-0.0439194 0.174726 0)
(-0.0573486 0.190524 0)
(-0.0711687 0.201811 0)
(-0.0850036 0.208913 0)
(-0.0985482 0.212192 0)
(-0.111565 0.21203 0)
(-0.123879 0.208808 0)
(-0.13537 0.202898 0)
(-0.145965 0.194649 0)
(-0.155627 0.184384 0)
(-0.16435 0.172393 0)
(-0.17215 0.158935 0)
(-0.179057 0.144235 0)
(-0.185111 0.128488 0)
(-0.190355 0.11186 0)
(-0.194833 0.0944938 0)
(-0.198583 0.076508 0)
(-0.201638 0.058006 0)
(-0.204021 0.0390779 0)
(-0.205745 0.0198055 0)
(-0.00064634 0.0243279 0)
(-0.00414085 0.0680679 0)
(-0.01142 0.10644 0)
(-0.0213793 0.139216 0)
(-0.0332284 0.166363 0)
(-0.0463749 0.187998 0)
(-0.0602681 0.204362 0)
(-0.0744235 0.21579 0)
(-0.0884423 0.222684 0)
(-0.102011 0.225482 0)
(-0.114896 0.224635 0)
(-0.126935 0.220588 0)
(-0.138027 0.213764 0)
(-0.148121 0.204558 0)
(-0.157209 0.193326 0)
(-0.16531 0.180385 0)
(-0.172466 0.166012 0)
(-0.178732 0.150443 0)
(-0.18417 0.133879 0)
(-0.188844 0.116486 0)
(-0.192816 0.0984036 0)
(-0.196138 0.0797445 0)
(-0.198857 0.0606029 0)
(-0.201008 0.0410577 0)
(-0.202609 0.0211779 0)
(-0.000700795 0.0265081 0)
(-0.00445851 0.0739561 0)
(-0.0122396 0.115331 0)
(-0.0228097 0.150397 0)
(-0.0352769 0.179152 0)
(-0.0489732 0.20177 0)
(-0.0632885 0.218573 0)
(-0.0776981 0.229985 0)
(-0.0917825 0.2365 0)
(-0.105224 0.238645 0)
(-0.117799 0.236952 0)
(-0.129365 0.231937 0)
(-0.139848 0.224083 0)
(-0.149228 0.21383 0)
(-0.157527 0.201571 0)
(-0.164798 0.187649 0)
(-0.171111 0.172355 0)
(-0.17655 0.155938 0)
(-0.181203 0.138599 0)
(-0.185154 0.120505 0)
(-0.188484 0.101787 0)
(-0.191264 0.0825491 0)
(-0.193553 0.0628748 0)
(-0.195395 0.042829 0)
(-0.196821 0.0224655 0)
(-0.000763697 0.0288612 0)
(-0.00481956 0.0802735 0)
(-0.0131593 0.124805 0)
(-0.024392 0.16221 0)
(-0.0375034 0.192529 0)
(-0.0517363 0.216015 0)
(-0.0664143 0.233087 0)
(-0.0809712 0.244284 0)
(-0.0949699 0.25021 0)
(-0.108096 0.251498 0)
(-0.120144 0.248775 0)
(-0.131001 0.242635 0)
(-0.140627 0.233625 0)
(-0.149043 0.222235 0)
(-0.156309 0.208894 0)
(-0.162514 0.193967 0)
(-0.167764 0.177763 0)
(-0.172173 0.160533 0)
(-0.175854 0.142481 0)
(-0.178918 0.123766 0)
(-0.181463 0.104513 0)
(-0.183577 0.0848125 0)
(-0.185333 0.0647334 0)
(-0.186788 0.0443249 0)
(-0.187978 0.0236232 0)
(-0.000837622 0.0314128 0)
(-0.00523632 0.0870753 0)
(-0.0142056 0.13492 0)
(-0.0261628 0.174695 0)
(-0.0399446 0.206499 0)
(-0.0546891 0.230687 0)
(-0.0696463 0.247809 0)
(-0.0842087 0.25854 0)
(-0.0979285 0.263624 0)
(-0.110504 0.263818 0)
(-0.121761 0.259855 0)
(-0.131627 0.252418 0)
(-0.140109 0.242123 0)
(-0.147275 0.229509 0)
(-0.153232 0.21504 0)
(-0.158111 0.199102 0)
(-0.162057 0.182012 0)
(-0.165215 0.164026 0)
(-0.167729 0.145343 0)
(-0.16973 0.126112 0)
(-0.17134 0.106445 0)
(-0.17266 0.086419 0)
(-0.173778 0.0660849 0)
(-0.17476 0.0454735 0)
(-0.175654 0.0246014 0)
(-0.000926134 0.0341955 0)
(-0.00572538 0.0944314 0)
(-0.0154134 0.145751 0)
(-0.0281685 0.187899 0)
(-0.0426448 0.221059 0)
(-0.0578573 0.245723 0)
(-0.072976 0.262608 0)
(-0.0873562 0.272565 0)
(-0.10055 0.276504 0)
(-0.112284 0.275328 0)
(-0.12243 0.269894 0)
(-0.130972 0.260979 0)
(-0.137976 0.24927 0)
(-0.143569 0.235355 0)
(-0.147911 0.219727 0)
(-0.151182 0.20279 0)
(-0.153565 0.184865 0)
(-0.155242 0.166203 0)
(-0.156384 0.146995 0)
(-0.157147 0.127376 0)
(-0.157667 0.107442 0)
(-0.158065 0.0872501 0)
(-0.158439 0.0668329 0)
(-0.158864 0.0462001 0)
(-0.159396 0.0253466 0)
(-0.00103424 0.0372526 0)
(-0.00630935 0.102431 0)
(-0.0168285 0.157387 0)
(-0.0304678 0.201874 0)
(-0.0456556 0.236193 0)
(-0.0612633 0.261026 0)
(-0.0763774 0.277308 0)
(-0.0903257 0.286112 0)
(-0.102678 0.288549 0)
(-0.11321 0.285694 0)
(-0.12186 0.278538 0)
(-0.128688 0.26796 0)
(-0.133834 0.254717 0)
(-0.137494 0.239441 0)
(-0.139888 0.222649 0)
(-0.141248 0.204752 0)
(-0.141801 0.186071 0)
(-0.141762 0.166844 0)
(-0.141328 0.147245 0)
(-0.140677 0.127394 0)
(-0.139962 0.107363 0)
(-0.139314 0.0871893 0)
(-0.138841 0.0668826 0)
(-0.138627 0.0464302 0)
(-0.138735 0.0258044 0)
(-0.00116912 0.0406408 0)
(-0.00701937 0.11119 0)
(-0.0185117 0.16994 0)
(-0.0331337 0.21667 0)
(-0.0490336 0.25186 0)
(-0.0649179 0.276453 0)
(-0.0797925 0.29167 0)
(-0.0929759 0.298862 0)
(-0.104083 0.299384 0)
(-0.112968 0.294506 0)
(-0.119664 0.285367 0)
(-0.124326 0.272948 0)
(-0.127186 0.258072 0)
(-0.128518 0.241405 0)
(-0.128611 0.223478 0)
(-0.12775 0.2047 0)
(-0.126204 0.185377 0)
(-0.124219 0.165729 0)
(-0.122017 0.145909 0)
(-0.11979 0.126008 0)
(-0.117704 0.106077 0)
(-0.1159 0.0861282 0)
(-0.114489 0.0661457 0)
(-0.113564 0.0460939 0)
(-0.11319 0.0259217 0)
(-0.00134132 0.0444369 0)
(-0.00789903 0.120857 0)
(-0.0205434 0.183541 0)
(-0.0362555 0.232334 0)
(-0.0528352 0.267983 0)
(-0.0688062 0.291792 0)
(-0.0831076 0.305364 0)
(-0.095082 0.310397 0)
(-0.10443 0.308535 0)
(-0.111124 0.301268 0)
(-0.115323 0.289888 0)
(-0.117304 0.275476 0)
(-0.117407 0.258904 0)
(-0.115994 0.240862 0)
(-0.113424 0.221877 0)
(-0.110035 0.202342 0)
(-0.106134 0.182537 0)
(-0.101993 0.162655 0)
(-0.0978512 0.142815 0)
(-0.0939112 0.123081 0)
(-0.0903449 0.103472 0)
(-0.0872945 0.0839739 0)
(-0.0848759 0.0645469 0)
(-0.0831806 0.0451305 0)
(-0.082277 0.0256507 0)
(-0.00156682 0.0487454 0)
(-0.00901044 0.131627 0)
(-0.0230307 0.198348 0)
(-0.0399389 0.248893 0)
(-0.0571045 0.284417 0)
(-0.0728611 0.306731 0)
(-0.0861154 0.31794 0)
(-0.0962886 0.320175 0)
(-0.103226 0.315416 0)
(-0.107068 0.305389 0)
(-0.108141 0.291538 0)
(-0.106869 0.275025 0)
(-0.103713 0.256755 0)
(-0.0991292 0.237417 0)
(-0.0935441 0.217515 0)
(-0.0873427 0.197406 0)
(-0.0808624 0.177332 0)
(-0.074393 0.157445 0)
(-0.06818 0.137826 0)
(-0.0624284 0.118501 0)
(-0.0573075 0.0994603 0)
(-0.052956 0.0806592 0)
(-0.0494854 0.0620318 0)
(-0.0469841 0.043495 0)
(-0.045519 0.0249531 0)
(-0.00187072 0.0537119 0)
(-0.010444 0.143752 0)
(-0.0261152 0.214538 0)
(-0.044301 0.26633 0)
(-0.0618484 0.30091 0)
(-0.0769179 0.320806 0)
(-0.0884533 0.328781 0)
(-0.0960411 0.327493 0)
(-0.099751 0.3193 0)
(-0.0999568 0.306171 0)
(-0.0971922 0.289678 0)
(-0.0920519 0.271038 0)
(-0.0851259 0.251156 0)
(-0.0769617 0.230687 0)
(-0.068046 0.210086 0)
(-0.0587982 0.189657 0)
(-0.049572 0.169586 0)
(-0.0406606 0.149971 0)
(-0.0323045 0.13085 0)
(-0.0246988 0.112208 0)
(-0.0180011 0.0939993 0)
(-0.0123377 0.0761521 0)
(-0.00780958 0.0585754 0)
(-0.00449634 0.0411646 0)
(-0.00245971 0.0238051 0)
(-0.00229413 0.0595443 0)
(-0.0123342 0.157565 0)
(-0.0299824 0.232297 0)
(-0.0494541 0.284533 0)
(-0.066986 0.317033 0)
(-0.0806346 0.333332 0)
(-0.0895064 0.337044 0)
(-0.0934822 0.331451 0)
(-0.0929618 0.319311 0)
(-0.0886226 0.302813 0)
(-0.0812461 0.283619 0)
(-0.071611 0.262947 0)
(-0.0604332 0.241657 0)
(-0.0483377 0.220331 0)
(-0.0358517 0.199347 0)
(-0.0234085 0.178929 0)
(-0.0113579 0.159193 0)
(2.16782e-05 0.140177 0)
(0.0105108 0.121864 0)
(0.0199375 0.104198 0)
(0.0281674 0.0870999 0)
(0.0350952 0.0704685 0)
(0.0406382 0.0541913 0)
(0.044731 0.038146 0)
(0.0473214 0.0222031 0)
(-0.00290698 0.0665476 0)
(-0.0148849 0.173493 0)
(-0.0348665 0.251779 0)
(-0.0554615 0.303215 0)
(-0.072252 0.332077 0)
(-0.0833563 0.34331 0)
(-0.0882546 0.341596 0)
(-0.0873032 0.330916 0)
(-0.0813581 0.314413 0)
(-0.0714698 0.294432 0)
(-0.0586922 0.27265 0)
(-0.0439827 0.250213 0)
(-0.0281601 0.227874 0)
(-0.0118966 0.2061 0)
(0.00427258 0.185154 0)
(0.0199304 0.165162 0)
(0.0347577 0.146155 0)
(0.0485137 0.128103 0)
(0.0610182 0.110934 0)
(0.0721374 0.0945522 0)
(0.0817717 0.078843 0)
(0.0898462 0.0636827 0)
(0.0963035 0.048941 0)
(0.101098 0.0344826 0)
(0.104191 0.0201687 0)
(-0.00383214 0.0751844 0)
(-0.0184072 0.192082 0)
(-0.041036 0.273027 0)
(-0.0622334 0.321753 0)
(-0.0770109 0.344888 0)
(-0.0838859 0.349296 0)
(-0.083039 0.340939 0)
(-0.0755352 0.324508 0)
(-0.0628162 0.303441 0)
(-0.0463516 0.280119 0)
(-0.0274585 0.256112 0)
(-0.00723445 0.232402 0)
(0.0134497 0.209562 0)
(0.0339268 0.187894 0)
(0.0537002 0.167518 0)
(0.0724092 0.148444 0)
(0.0897975 0.130611 0)
(0.105687 0.113918 0)
(0.119957 0.0982416 0)
(0.132525 0.0834467 0)
(0.143339 0.0693931 0)
(0.152362 0.0559387 0)
(0.159567 0.0429418 0)
(0.164933 0.0302606 0)
(0.168439 0.0177533 0)
(-0.00528898 0.0861813 0)
(-0.0233695 0.213976 0)
(-0.048719 0.295782 0)
(-0.0692893 0.338934 0)
(-0.0799096 0.35364 0)
(-0.0801037 0.349262 0)
(-0.071214 0.333164 0)
(-0.0552698 0.310628 0)
(-0.034389 0.285182 0)
(-0.0104447 0.259043 0)
(0.0150524 0.233512 0)
(0.0409536 0.209292 0)
(0.066422 0.186706 0)
(0.0908704 0.165847 0)
(0.113902 0.146671 0)
(0.135258 0.129066 0)
(0.15478 0.112879 0)
(0.172379 0.0979463 0)
(0.188009 0.0840989 0)
(0.201654 0.0711726 0)
(0.213315 0.0590093 0)
(0.222999 0.0474576 0)
(0.230716 0.0363723 0)
(0.236469 0.0256127 0)
(0.240259 0.0150411 0)
(-0.00766375 0.100701 0)
(-0.0304286 0.239814 0)
(-0.0578563 0.319094 0)
(-0.0752404 0.352514 0)
(-0.0782402 0.35552 0)
(-0.068362 0.340464 0)
(-0.0486596 0.315982 0)
(-0.0223181 0.287594 0)
(0.00789783 0.258558 0)
(0.0398447 0.230642 0)
(0.0719803 0.204694 0)
(0.103254 0.181023 0)
(0.132988 0.159642 0)
(0.160767 0.140415 0)
(0.186363 0.123133 0)
(0.209667 0.107568 0)
(0.230648 0.0934934 0)
(0.249326 0.0806931 0)
(0.265742 0.0689701 0)
(0.279954 0.0581442 0)
(0.292018 0.0480513 0)
(0.301989 0.0385412 0)
(0.309911 0.0294743 0)
(0.315815 0.0207192 0)
(0.319721 0.0121498 0)
(-0.0115779 0.12057 0)
(-0.0402972 0.269837 0)
(-0.0673924 0.340573 0)
(-0.076695 0.358596 0)
(-0.0668202 0.34644 0)
(-0.0425719 0.319469 0)
(-0.0091581 0.286957 0)
(0.0291413 0.253967 0)
(0.0691878 0.222961 0)
(0.108881 0.194931 0)
(0.146921 0.17009 0)
(0.182565 0.148283 0)
(0.21544 0.129197 0)
(0.245403 0.112478 0)
(0.272454 0.0977789 0)
(0.296668 0.0847873 0)
(0.318164 0.0732268 0)
(0.337075 0.0628583 0)
(0.353535 0.0534759 0)
(0.36767 0.044901 0)
(0.379591 0.0369779 0)
(0.389393 0.0295686 0)
(0.397153 0.0225489 0)
(0.402926 0.0158042 0)
(0.406748 0.00922685 0)
(-0.0177466 0.148611 0)
(-0.0528967 0.302857 0)
(-0.073377 0.355011 0)
(-0.0660482 0.35083 0)
(-0.0361527 0.320955 0)
(0.00701656 0.282556 0)
(0.0562468 0.244113 0)
(0.106773 0.209173 0)
(0.155734 0.178796 0)
(0.201596 0.152914 0)
(0.243664 0.131028 0)
(0.281737 0.112526 0)
(0.315879 0.0968274 0)
(0.346293 0.0834224 0)
(0.373236 0.0718872 0)
(0.396978 0.0618742 0)
(0.417781 0.0531001 0)
(0.435882 0.0453338 0)
(0.451492 0.0383853 0)
(0.464794 0.0320967 0)
(0.47594 0.0263346 0)
(0.485057 0.0209844 0)
(0.492244 0.0159452 0)
(0.497573 0.0111261 0)
(0.501092 0.00644261 0)
(-0.0258737 0.18943 0)
(-0.0643725 0.333742 0)
(-0.0644093 0.351766 0)
(-0.0273564 0.319375 0)
(0.0302548 0.272572 0)
(0.0951073 0.226663 0)
(0.159574 0.186983 0)
(0.219857 0.154393 0)
(0.274417 0.128122 0)
(0.322932 0.107014 0)
(0.365663 0.0899739 0)
(0.403109 0.0760939 0)
(0.43583 0.0646641 0)
(0.46437 0.0551407 0)
(0.489218 0.0471097 0)
(0.510803 0.0402552 0)
(0.52949 0.0343337 0)
(0.545587 0.0291555 0)
(0.55935 0.0245705 0)
(0.570992 0.0204577 0)
(0.580687 0.0167179 0)
(0.588573 0.0132678 0)
(0.594758 0.0100355 0)
(0.59932 0.00695737 0)
(0.602314 0.00397504 0)
(-0.0296189 0.246767 0)
(-0.0583678 0.346609 0)
(-0.0119185 0.311531 0)
(0.0704123 0.251512 0)
(0.159036 0.196121 0)
(0.24201 0.151925 0)
(0.315269 0.118613 0)
(0.378167 0.0938894 0)
(0.431574 0.0754398 0)
(0.476816 0.0614702 0)
(0.515199 0.0506996 0)
(0.547862 0.0422365 0)
(0.575747 0.0354623 0)
(0.599616 0.0299443 0)
(0.620082 0.0253759 0)
(0.637636 0.0215352 0)
(0.652672 0.0182591 0)
(0.665508 0.0154246 0)
(0.676398 0.0129376 0)
(0.685547 0.0107242 0)